40
Lattice="5.89961983335498 0.00027218499946 -0.52907271295569 -0.00024302799952 5.3915214983579 -0.00010514599979 -3.97055184616269 0.00033142399935 8.01696481517564" Properties=species:S:1:pos:R:3:forces:R:3 pbc="T T T"
C        1.44050802       4.45506480       0.90643607      -0.00020260      -0.00000103      -0.00008510
C        0.48831679       0.93706049       6.58135104       0.00020260       0.00000103       0.00008510
C        2.47327700       1.75934175       2.57311477       0.00019849       0.00003162       0.00012136
C       -0.54445217       3.63278348       4.91467234      -0.00019849      -0.00003162      -0.00012136
C        1.61952773      -0.13033385      -0.13517335      -0.00045663      -0.00008099       0.00004705
C        0.30929734       5.52245906       7.62296028       0.00045663       0.00008099      -0.00004705
C        2.29464618       2.56559910       3.61475266       0.00044120      -0.00012136      -0.00004937
C       -0.36582130       2.82652612       3.87303467      -0.00044120       0.00012136       0.00004937
C        1.21707400       1.25741526      -0.05656407      -0.00009616      -0.00008279       0.00031882
C        0.71175111       4.13470996       7.54435123       0.00009616       0.00008279      -0.00031882
C        2.69712267       3.95333251       3.53596480       0.00019515      -0.00004474      -0.00050188
C       -0.76829749       1.43879270       3.95182228      -0.00019515       0.00004474       0.00050188
N       -2.48002484       2.07530557       6.96249443       0.00005836       0.00028951      -0.00016738
N        4.40885009       3.31681965       0.52529253      -0.00005836      -0.00028951       0.00016738
N        2.42400337       4.77093919       4.53391565      -0.00015864       0.00023500       0.00032319
N       -0.49517820       0.62118602       2.95387143       0.00015864      -0.00023500      -0.00032319
O        0.62667481       1.70985410       0.96486431      -0.00013498       0.00022420       0.00028591
O        1.30215007       3.68227095       6.52292268       0.00013498      -0.00022420      -0.00028591
O        3.28727061       4.40570517       2.51435053       0.00006968       0.00017175      -0.00018101
O       -1.35844578       0.98642020       4.97343658      -0.00006968      -0.00017175       0.00018101
H        0.95779580       4.79090281       1.81241730      -0.00011184      -0.00019360      -0.00005656
H        0.97102944       0.60122240       5.67536965       0.00011184       0.00019360       0.00005656
H        2.95591477       2.09501607       1.66703814       0.00010773      -0.00019952       0.00005476
H       -1.02708960       3.29710913       5.82074893      -0.00010773       0.00019952      -0.00005476
H        1.70503622       3.41672407       0.88078987      -0.00035558      -0.00001877       0.00002880
H        0.22378894       1.97540114       6.60699726       0.00035558       0.00001877      -0.00002880
H        2.20864512       0.72103394       2.59894288       0.00034196      -0.00003394      -0.00002108
H       -0.27981993       4.67109127       4.88884422      -0.00034196       0.00003394       0.00002108
H       -1.91277027      -0.48062789       6.95519187       0.00008767       0.00008150       0.00029413
H        3.84159534       5.87275298       0.53259504      -0.00008767      -0.00008150      -0.00029413
H        1.85654396       2.21508404       4.54146211      -0.00008048       0.00008099      -0.00029465
H        0.07228093       3.17704132       2.94632520       0.00008048      -0.00008099       0.00029465
H       -3.01804982       2.94319868       6.97683128      -0.00016198      -0.00002340      -0.00002185
H        4.94687479       2.44892653       0.51095591       0.00016198       0.00002340       0.00002185
H        2.96210378       5.63880757       4.51944834       0.00021289       0.00002057       0.00001286
H       -1.03327877      -0.24668237       2.96833875      -0.00021289      -0.00002057      -0.00001286
H       -1.99014345       1.72925776       6.10757489      -0.00002057      -0.00022266      -0.00004345
H        3.91896875       3.66286745       1.38021196       0.00002057       0.00022266       0.00004345
H        1.93408209       4.42500007       5.38886292       0.00006453      -0.00019797      -0.00001003
H       -0.00525703       0.96712516       2.09892440      -0.00006453       0.00019797       0.00001003
