40
Lattice="5.69711146175471 0.00026057699949 -0.64992584671714 -0.00024383699952 5.30689690452494 -0.00016125799968 -4.01992503806524 0.00023505799954 7.79218370161933" Properties=species:S:1:pos:R:3:forces:R:3 pbc="T T T"
C        1.34295244       4.39277996       0.84376142       0.00056873      -0.00135703      -0.00038567
C        0.33398999       0.91461271       6.29833525      -0.00056873       0.00135703       0.00038567
C        2.34375829       1.73937500       2.40235029       0.00030622       0.00177226       0.00014630
C       -0.66681585       3.56801759       4.73974639      -0.00030622      -0.00177226      -0.00014630
C        1.57643907      -0.11626322      -0.18884926      -0.00033090      -0.00004139      -0.00048877
C        0.10050361       5.42365581       7.33094577       0.00033090       0.00004139       0.00048877
C        2.11057192       2.53737118       3.43504810       0.00008382      -0.00143082       0.00026277
C       -0.43362943       2.77002141       3.70704878      -0.00008382       0.00143082      -0.00026277
C        1.20530691       1.26431045      -0.11093968       0.00017278      -0.00065280      -0.00031856
C        0.47163583       4.04308214       7.25303641      -0.00017278       0.00065280       0.00031856
C        2.48164545       3.91794310       3.35699660       0.00024837      -0.00087212      -0.00059084
C       -0.80470267       1.38944949       3.78510003      -0.00024837       0.00087212       0.00059084
N       -2.47221987       2.09458773       6.72496948      -0.00068726      -0.00047720       0.00017612
N        4.14916272       3.21280486       0.41712704       0.00068726       0.00047720      -0.00017612
N        2.13938474       4.74803362       4.31325004      -0.00016147      -0.00045894       0.00131640
N       -0.46244196       0.55935897       2.82884659       0.00016147       0.00045894      -0.00131640
O        0.58952732       1.71932188       0.89593203      -0.00021957       0.00009436      -0.00023268
O        1.08741518       3.58807055       6.24616453       0.00021957      -0.00009436       0.00023268
O        3.09727252       4.37290769       2.35000344       0.00025068       0.00012984       0.00013395
O       -1.42033008       0.93448505       4.79209323      -0.00025068      -0.00012984      -0.00013395
H        0.82511494       4.73297035       1.72181648      -0.00131255       0.00045020      -0.00013035
H        0.85182790       0.57442224       5.42028004       0.00131255      -0.00045020       0.00013035
H        2.86156288       2.07949511       1.52421745       0.00082841      -0.00001337       0.00090014
H       -1.18462010       3.22789748       5.61787918      -0.00082841       0.00001337      -0.00090014
H        1.56003701       3.34872392       0.83043162      -0.00052785       0.00109580       0.00062529
H        0.11690574       1.95866867       6.31166507       0.00052785      -0.00109580      -0.00062529
H        2.12665351       0.69537636       2.41581253       0.00014295      -0.00062426      -0.00053710
H       -0.44971073       4.61201622       4.72628411      -0.00014295       0.00062426       0.00053710
H       -1.98684093      -0.47426318       6.69421393       0.00021957      -0.00120790      -0.00067286
H        3.66378362       5.78165564       0.44788256      -0.00021957       0.00120790       0.00067286
H        1.65403514       2.17918697       4.34425236      -0.00008819      -0.00100967       0.00044634
H        0.02290735       3.12820577       2.79784451       0.00008819       0.00100967      -0.00044634
H       -2.99562439       2.96560580       6.73359390      -0.00001646      -0.00044789       0.00035018
H        4.67256694       2.34178679       0.40850286       0.00001646       0.00044789      -0.00035018
H        2.66281006       5.61904345       4.30453766       0.00019952      -0.00018743      -0.00043734
H       -0.98586745      -0.31165086       2.83755899      -0.00019952       0.00018743       0.00043734
H       -1.99650587       1.72260995       5.87118264       0.00019566      -0.00047745       0.00011107
H        3.67344877       3.58478264       1.27091377      -0.00019566       0.00047745      -0.00011107
H        1.66367049       4.37611274       5.16708944       0.00007122      -0.00026559      -0.00062144
H        0.01327217       0.93127987       1.97500743      -0.00007122       0.00026559       0.00062144
