40
Lattice="5.84528167046224 0.00027171799946 -0.55649398790156 -0.00024281599952 5.37502046439047 -0.00012963299974 -3.97603326415187 0.00029180299942 7.96553903427715" Properties=species:S:1:pos:R:3:forces:R:3 pbc="T T T"
C        1.41322925       4.44594577       0.89318970       0.00004397      -0.00016455       0.00022549
C        0.45577619       0.92963839       6.51572585      -0.00004397       0.00016455      -0.00022549
C        2.44353803       1.75848885       2.53313187      -0.00014964       0.00038335       0.00036278
C       -0.57453257       3.61709524       4.87578368       0.00014964      -0.00038335      -0.00036278
C        1.60645500      -0.12593177      -0.14716428       0.00011621       0.00009719      -0.00001003
C        0.26255070       5.50151585       7.55607966      -0.00011621      -0.00009719       0.00001003
C        2.25065326       2.56175861       3.57355137       0.00000977      -0.00030313      -0.00058827
C       -0.38164775       2.81382548       3.83536439      -0.00000977       0.00030313       0.00058827
C        1.21463019       1.26164246      -0.06963446       0.00011287      -0.00036253       0.00008305
C        0.65437555       4.11394163       7.47855006      -0.00011287       0.00036253      -0.00008305
C        2.64246622       3.94932641       3.49585586       0.00004088      -0.00042912      -0.00042166
C       -0.77346041       1.42625767       3.91305966      -0.00004088       0.00042912       0.00042166
N       -2.47056364       2.08112368       6.90625697       0.00015272      -0.00001234      -0.00010516
N        4.33956952       3.29446040       0.50265843      -0.00015272       0.00001234       0.00010516
N        2.35187041       4.76856352       4.48552469      -0.00014475       0.00024811       0.00031830
N       -0.48286461       0.60702056       2.92339083       0.00014475      -0.00024811      -0.00031830
O        0.61955260       1.71678212       0.94814908      -0.00002083      -0.00008665       0.00041061
O        1.24945291       3.65880180       6.46076635       0.00002083       0.00008665      -0.00041061
O        3.23733765       4.40440857       2.47791420      -0.00006968      -0.00014938      -0.00025171
O       -1.36833219       0.97117566       4.93100135       0.00006968       0.00014938       0.00025171
H        0.92367521       4.78441002       1.79308667      -0.00008562      -0.00009307       0.00000257
H        0.94533065       0.59117406       5.61582872       0.00008562       0.00009307      -0.00000257
H        2.93302729       2.09682097       1.63315826       0.00013241      -0.00007405      -0.00009796
H       -1.06402149       3.27876310       5.77575725      -0.00013241       0.00007405       0.00009796
H        1.66440913       3.40536917       0.87126320      -0.00002597       0.00021340      -0.00001517
H        0.20459666       1.97021491       6.53765237       0.00002597      -0.00021340       0.00001517
H        2.19229001       0.71793920       2.55522179      -0.00001928       0.00003780       0.00001543
H       -0.32328420       4.65764488       4.85369375       0.00001928      -0.00003780      -0.00001543
H       -1.92842083      -0.47997081       6.89565497      -0.00002494       0.00010130       0.00008639
H        3.79742653       5.85555476       0.51326039       0.00002494      -0.00010130      -0.00008639
H        1.80962987       2.20751652       4.49636174      -0.00002417       0.00006453       0.00002854
H        0.05937565       3.16806771       2.91255401       0.00002417      -0.00006453      -0.00002854
H       -3.00337824       2.95079231       6.91892107      -0.00002854      -0.00018615      -0.00014218
H        4.87238383       2.42479177       0.48999456       0.00002854       0.00018615       0.00014218
H        2.88473796       5.63822179       4.47274364      -0.00000026      -0.00027691       0.00012881
H       -1.01573232      -0.26263772       2.93617189       0.00000026       0.00027691      -0.00012881
H       -1.98484993       1.72707374       6.05152158       0.00016609       0.00001620      -0.00001311
H        3.85385586       3.64851034       1.35739371      -0.00016609      -0.00001620       0.00001311
H        1.86613652       4.41460465       5.34029047      -0.00015427       0.00000771      -0.00001054
H        0.00286916       0.96097945       2.06862529       0.00015427      -0.00000771       0.00001054
