40
Lattice="6.04163676507466 0.00026728599947 -0.46889253907447 -0.0002537449995 5.42242166229691 -7.348299985e-05 -3.97313632615759 0.00039246099923 8.13705976193859" Properties=species:S:1:pos:R:3:forces:R:3 pbc="T T T"
C        1.51116393       4.46459714       0.93495009       0.00015787       0.00008690      -0.00005296
C        0.55708262       0.95848447       6.73314384      -0.00015787      -0.00008690       0.00005296
C        2.54321940       1.75337873       2.66500493      -0.00017663       0.00032730       0.00026071
C       -0.47497283       3.66970282       5.00308900       0.00017663      -0.00032730      -0.00026071
C        1.65685095      -0.14291225      -0.10711364       0.00022651      -0.00018023       0.00004448
C        0.41139586       5.56599378       7.77520738      -0.00022651       0.00018023      -0.00004448
C        2.39801515       2.56845846       3.70705000      -0.00020620      -0.00035456      -0.00023757
C       -0.32976852       2.85462309       3.96104415       0.00020620       0.00035456       0.00023757
C        1.22117320       1.24135710      -0.02435058       0.00003162      -0.00019952       0.00028308
C        0.84707365       4.18172444       7.69244457      -0.00003162       0.00019952      -0.00028308
C        2.83377915       3.95268815       3.62406656       0.00006453      -0.00023089      -0.00049828
C       -0.76553222       1.47039338       4.04402733      -0.00006453       0.00023089       0.00049828
N       -2.52190435       2.05757842       7.09835702       0.00016095       0.00017329      -0.00021417
N        4.59015135       3.36550312       0.56973676      -0.00016095      -0.00017329       0.00021417
N        2.60421975       4.76855070       4.63849346      -0.00020517       0.00027716       0.00040932
N       -0.53597282       0.65453083       3.02960044       0.00020517      -0.00027716      -0.00040932
O        0.63804452       1.68249174       1.00571357      -0.00025428      -0.00039209      -0.00022754
O        1.43020210       3.74058963       6.66238024       0.00025428       0.00039209       0.00022754
O        3.41657370       4.39373301       2.59376277       0.00020517      -0.00042783       0.00031239
O       -1.34832713       1.02934868       5.07433115      -0.00020517       0.00042783      -0.00031239
H        1.03894738       4.79229825       1.85253145      -0.00003857       0.00020646      -0.00032550
H        1.02929961       0.63078328       5.81556231       0.00003857      -0.00020646       0.00032550
H        3.01533116       2.08086391       1.74729780       0.00004474       0.00020363       0.00030699
H       -0.94708424       3.34221762       5.92079609      -0.00004474      -0.00020363      -0.00030699
H        1.80984554       3.43324581       0.90025455       0.00013473       0.00010053      -0.00002417
H        0.25840137       1.98983572       6.76783941      -0.00013473      -0.00010053       0.00002417
H        2.24438565       0.72208175       2.69993551      -0.00016095       0.00001594       0.00002957
H       -0.17613871       4.70099978       4.96815840       0.00016095      -0.00001594      -0.00002957
H       -1.87992473      -0.48013549       7.09553491      -0.00033733       0.00001054      -0.00008742
H        3.94817155       5.90321691       0.57255881       0.00033733      -0.00001054       0.00008742
H        1.96183709       2.23099686       4.64159605       0.00032936       0.00000489       0.00011159
H        0.10640954       3.19208482       3.02649808      -0.00032936      -0.00000489      -0.00011159
H       -3.07619862       2.91886452       7.11521902       0.00021263       0.00020106       0.00020980
H        5.14444533       2.50421701       0.55287499      -0.00021263      -0.00020106      -0.00020980
H        3.15859754       5.62981493       4.62147636      -0.00020595       0.00017741      -0.00021957
H       -1.09035080      -0.20673340       3.04661755       0.00020595      -0.00017741       0.00021957
H       -2.02058812       1.73379269       6.24372965      -0.00014707       0.00017663      -0.00024965
H        4.08883517       3.68928885       1.42436401       0.00014707      -0.00017663       0.00024965
H        2.10284020       4.44491215       5.49314424       0.00017741       0.00018358       0.00020903
H       -0.03459338       0.97816940       2.17494991      -0.00017741      -0.00018358      -0.00020903
