40
Lattice="5.76004875163048 0.00026486999948 -0.60608608280367 -0.00024606599951 5.34074747245812 -0.00016523499967 -3.99462515711517 0.00023611299953 7.87468479945648" Properties=species:S:1:pos:R:3:forces:R:3 pbc="T T T"
C        1.37212893       4.42086283       0.86786952      -0.00004859      -0.00004448      -0.00003111
C        0.39304844       0.92038578       6.40056407       0.00004859       0.00004448       0.00003111
C        2.39018164       1.75056544       2.46331908       0.00004165       0.00007559       0.00013061
C       -0.62500425       3.59068309       4.80511451      -0.00004165      -0.00007559      -0.00013061
C        1.58828878      -0.12044853      -0.16894792      -0.00000926      -0.00004474       0.00007945
C        0.17688886       5.46169706       7.43738134       0.00000926       0.00004474      -0.00007945
C        2.17430682       2.55010392       3.50023418       0.00001414      -0.00013241      -0.00015709
C       -0.40912939       2.79114461       3.76819962      -0.00001414       0.00013241       0.00015709
C        1.20968777       1.26440244      -0.09194146       0.00018255      -0.00014115       0.00010670
C        0.55548991       4.07684609       7.36037510      -0.00018255       0.00014115      -0.00010670
C        2.55285075       3.93496301       3.42308196       0.00001208      -0.00015529      -0.00050059
C       -0.78767302       1.40628552       3.84535159      -0.00001208       0.00015529       0.00050059
N       -2.46613620       2.08874808       6.80971561      -0.00000874       0.00012058      -0.00014347
N        4.23131400       3.25250044       0.45871783       0.00000874      -0.00012058       0.00014347
N        2.23417616       4.75912342       4.39609848      -0.00009256       0.00022369       0.00041240
N       -0.46899842       0.58212511       2.87233507       0.00009256      -0.00022369      -0.00041240
O        0.60456756       1.72092790       0.91995436      -0.00006376       0.00008587       0.00017381
O        1.16060989       3.62032046       6.34847911       0.00006376      -0.00008587      -0.00017381
O        3.15782279       4.39144436       2.41106659      -0.00006685       0.00000154       0.00004217
O       -1.39264539       0.94980432       4.85736700       0.00006685      -0.00000154      -0.00004217
H        0.86807515       4.76164893       1.75616504      -0.00006299      -0.00017612      -0.00001491
H        0.89710265       0.57959960       5.51226839       0.00006299       0.00017612       0.00001491
H        2.89418541       2.09125383       1.57496153       0.00006762      -0.00017843       0.00000206
H       -1.12900768       3.24999469       5.69347201      -0.00006762       0.00017843      -0.00000206
H        1.60332758       3.37778626       0.85132483      -0.00005374       0.00002520       0.00000386
H        0.16185013       1.96346227       6.41710878       0.00005374      -0.00002520      -0.00000386
H        2.15896495       0.70749828       2.47999928       0.00004628      -0.00002108      -0.00000720
H       -0.39378722       4.63375024       4.78843428      -0.00004628       0.00002108       0.00000720
H       -1.95801971      -0.47818235       6.79011077      -0.00002880       0.00017869       0.00006736
H        3.72319735       5.81943075       0.47832263       0.00002880      -0.00017869      -0.00006736
H        1.72609433       2.19220048       4.41593523       0.00002905       0.00017792      -0.00006222
H        0.03908312       3.14904820       2.85249856      -0.00002905      -0.00017792       0.00006222
H       -2.99323185       2.95955865       6.81987529      -0.00006145      -0.00000643       0.00012033
H        4.75840936       2.38168988       0.44855838       0.00006145       0.00000643      -0.00012033
H        2.76128576       5.62993820       4.38583803       0.00007071      -0.00001286      -0.00013293
H       -0.99610819      -0.28868968       2.88259554      -0.00007071       0.00001286       0.00013293
H       -1.98629638       1.72400311       5.95540912       0.00014167      -0.00020492      -0.00000591
H        3.75147424       3.61724542       1.31302420      -0.00014167       0.00020492       0.00000591
H        1.75433975       4.39444128       5.25043972      -0.00010901      -0.00017946      -0.00005708
H        0.01083787       0.94680727       2.01799406       0.00010901       0.00017946       0.00005708
