40
Lattice="6.3700622674264 0.00023518699954 -0.36845893227271 -0.0003049339994 5.49582665915201 -0.00014632899971 -4.03582212503386 0.00032697599935 8.35869849250111" Properties=species:S:1:pos:R:3:forces:R:3 pbc="T T T"
C        1.63954523       4.51979527       0.99867704       0.00021494       0.00006993      -0.00026559
C        0.69438984       0.97659379       6.99141642      -0.00021494      -0.00006993       0.00026559
C        2.71198236       1.77188056       2.81234245      -0.00024734       0.00011004       0.00036150
C       -0.37804726       3.72450844       5.17775103       0.00024734      -0.00011004      -0.00036150
C        1.74030818      -0.14352001      -0.03795552       0.00019823      -0.00028205       0.00001131
C        0.59362715       5.63990899       8.02804879      -0.00019823       0.00028205      -0.00001131
C        2.61164066       2.60452602       3.84902692      -0.00016147      -0.00031856      -0.00012984
C       -0.27770549       2.89186297       4.14106678       0.00016147       0.00031856       0.00012984
C        1.23054874       1.22724943       0.04766378      -0.00007919      -0.00032782       0.00049648
C        1.10338666       4.26913957       7.94242974       0.00007919       0.00032782      -0.00049648
C        3.12139602       3.97528558       3.76319973       0.00006993      -0.00036175      -0.00049982
C       -0.78746055       1.52110341       4.22689371      -0.00006993       0.00036175       0.00049982
N       -2.62975987       2.03722307       7.36831450      -0.00005219       0.00043709      -0.00053248
N        4.96369542       3.45916592       0.62177883       0.00005219      -0.00043709       0.00053248
N        2.94615927       4.78497641       4.80125508       0.00007225       0.00051833       0.00053582
N       -0.61222379       0.71141256       3.18883836      -0.00007225      -0.00051833      -0.00053582
O        0.63555122       1.64272862       1.08055300       0.00016944       0.00008228       0.00001620
O        1.69838392       3.85366021       6.90954035      -0.00016944      -0.00008228      -0.00001620
O        3.71617074       4.39069105       2.73014794      -0.00016275       0.00006993      -0.00002340
O       -1.38223566       1.10569809       5.25994553       0.00016275      -0.00006993       0.00002340
H        1.16812503       4.83385803       1.92696198      -0.00001183      -0.00006813      -0.00055253
H        1.16581050       0.66253095       6.06313133       0.00001183       0.00006813       0.00055253
H        3.18328068       2.08580653       1.88395235       0.00003677      -0.00005142       0.00052296
H       -0.84934521       3.41058246       6.10614108      -0.00003677       0.00005142      -0.00052296
H        1.99432034       3.50133986       0.95304597       0.00002494      -0.00000309      -0.00022446
H        0.33961512       1.99504911       7.03704754      -0.00002494       0.00000309       0.00022446
H        2.35720834       0.75343233       2.85817212      -0.00001028      -0.00000129       0.00021289
H       -0.02327286       4.74295664       5.13192135       0.00001028       0.00000129      -0.00021289
H       -1.84406792      -0.45041618       7.37965663       0.00022626      -0.00008922       0.00012187
H        4.17800328       5.94680504       0.61043664      -0.00022626       0.00008922      -0.00012187
H        2.16033136       2.29741643       4.79021258      -0.00024066      -0.00009616      -0.00010722
H        0.17360380       3.19897270       3.19988110       0.00024066       0.00009616       0.00010722
H       -3.20838641       2.88813505       7.36937096       0.00007405       0.00020980       0.00016635
H        5.54232164       2.60825392       0.62072259      -0.00007405      -0.00020980      -0.00016635
H        3.52475738       5.63592610       4.80006930      -0.00010516       0.00018640      -0.00016969
H       -1.19082211      -0.13953711       3.19002416       0.00010516      -0.00018640       0.00016969
H       -2.11163197       1.74022826       6.51893926      -0.00023551       0.00024477       0.00001851
H        4.44556758       3.75616073       1.47115394       0.00023551      -0.00024477      -0.00001851
H        2.42801349       4.48808654       5.65065575       0.00021494       0.00023268      -0.00001697
H       -0.09407814       1.00830245       2.33943796      -0.00021494      -0.00023268       0.00001697
