40
Lattice="5.53378819607708 0.00022374299956 -0.76098177949793 -0.00026864499947 5.20311669172978 -0.00021186199958 -4.08192500494286 0.00016618299967 7.56979792105829" Properties=species:S:1:pos:R:3:forces:R:3 pbc="T T T"
C        1.27708886       4.29753210       0.78098514      -0.00031110       0.00120019      -0.00054559
C        0.17450555       0.90597469       6.02761927       0.00031110      -0.00120019       0.00054559
C        2.21541172       1.69608714       2.24270962       0.00063686       0.00038772      -0.00067697
C       -0.76381731       3.50741958       4.56589480      -0.00063686      -0.00038772       0.00067697
C        1.54630427      -0.11577267      -0.24529484      -0.00061604       0.00049777       0.00085592
C       -0.09470962       5.31927939       7.05389909       0.00061604      -0.00049777      -0.00085592
C        1.94640218       2.48596937       3.26911224      -0.00014887      -0.00013113       0.00070011
C       -0.49480772       2.71753735       3.53949237       0.00014887       0.00013113      -0.00070011
C        1.18942916       1.24828099      -0.16032795      -0.00002777      -0.00124750      -0.00041035
C        0.26216552       3.95522573       6.96893241       0.00002777       0.00124750       0.00041035
C        2.30314356       3.85001018       3.18401792      -0.00102047       0.00316246       0.00385588
C       -0.85154881       1.35349652       3.62458645       0.00102047      -0.00316246      -0.00385588
N       -2.49818790       2.10006942       6.50596359      -0.00143159       0.00337123      -0.00077185
N        3.94978271       3.10343729       0.30264068       0.00143159      -0.00337123       0.00077185
N        1.90876709       4.70176083       4.08749779       0.00054070      -0.00298017      -0.00177740
N       -0.45717234       0.50174587       2.72110657      -0.00054070       0.00298017       0.00177740
O        0.54807354       1.69350130       0.83883533      -0.00044506       0.00114543      -0.00040829
O        0.90352093       3.51000526       5.96976899       0.00044506      -0.00114543       0.00040829
O        2.94443447       4.29523019       2.18483869       0.00088575       0.00109400      -0.00032422
O       -1.49284006       0.90827665       4.62376572      -0.00088575      -0.00109400       0.00032422
H        0.72742422       4.64147273       1.63020943      -0.00077853       0.00013961       0.00042063
H        0.72417059       0.56203398       5.17839483       0.00077853      -0.00013961      -0.00042063
H        2.76504536       2.03998724       1.39344139       0.00066617       0.00007353      -0.00020492
H       -1.31345064       3.16351948       5.41516296      -0.00066617      -0.00007353       0.00020492
H        1.44782071       3.25111891       0.77745719       0.00006659       0.00079807      -0.00026200
H        0.00377400       1.95238779       6.03114723      -0.00006659      -0.00079807       0.00026200
H        2.04477808       0.64965355       2.24631817      -0.00007122       0.00096725       0.00037770
H       -0.59318334       4.55385316       4.56228620       0.00007122      -0.00096725      -0.00037770
H       -2.06194888      -0.47267990       6.43123841      -0.00071297       0.00073379      -0.00012907
H        3.51354355       5.67618647       0.37736581       0.00071297      -0.00073379       0.00012907
H        1.47276780       2.12893146       4.16242828       0.00092997       0.00088523      -0.00031779
H       -0.02117336       3.07457540       2.64617633      -0.00092997      -0.00088523       0.00031779
H       -3.00834396       2.97333831       6.52454683       0.00214610      -0.00137965      -0.00055742
H        4.45993846       2.23016840       0.28405769      -0.00214610       0.00137965       0.00055742
H        2.41882558       5.57499984       4.06882584      -0.00070937       0.00103204       0.00053762
H       -0.96723102      -0.37149313       2.73977854       0.00070937      -0.00103204      -0.00053762
H       -2.03121059       1.71936091       5.65144648       0.00105647      -0.00029568      -0.00092611
H        3.48280547       3.48414579       1.15715766      -0.00105647       0.00029568       0.00092611
H        1.44181771       4.32103539       4.94203558      -0.00082018       0.00022317       0.00071451
H        0.00977692       0.88247132       1.86656903       0.00082018      -0.00022317      -0.00071451
