40
Lattice="5.61529122791621 0.00025760699949 -0.70425055660991 -0.00024173599952 5.26121405161511 -0.00017842999965 -4.0482635320093 0.0002023279996 7.68999257282104" Properties=species:S:1:pos:R:3:forces:R:3 pbc="T T T"
C        1.30735478       4.35192481       0.81441575      -0.00000591       0.00001466       0.00008510
C        0.25943103       0.90974931       6.17114791       0.00000591      -0.00001466      -0.00008510
C        2.28341905       1.72139522       2.32621230      -0.00026662       0.00034658       0.00068674
C       -0.71663324       3.54027882       4.65935137       0.00026662      -0.00034658      -0.00068674
C        1.56089292      -0.11513278      -0.21435491       0.00015221       0.00004371      -0.00036098
C        0.00589314       5.37680682       7.19991840      -0.00015221      -0.00004371       0.00036098
C        2.03012973       2.51564474       3.35510538       0.00021726       0.00006865      -0.00052193
C       -0.46334387       2.74602930       3.63045849      -0.00021726      -0.00006865       0.00052193
C        1.19807740       1.25861621      -0.13382272      -0.00013421       0.00068314      -0.00074279
C        0.36870870       4.00305783       7.11938644       0.00013421      -0.00068314       0.00074279
C        2.39287542       3.88941641       3.27443140       0.00031779      -0.00044814      -0.00006479
C       -0.82608926       1.37225762       3.71113222      -0.00031779       0.00044814       0.00006479
N       -2.48223131       2.09824886       6.62330825       0.00007816      -0.00058390       0.00054996
N        4.04901753       3.16342518       0.36225526      -0.00007816       0.00058390      -0.00054996
N        2.02498975       4.72887464       4.20726288       0.00018255       0.00101353       0.00008870
N       -0.45820360       0.53279939       2.77830074      -0.00018255      -0.00101353      -0.00008870
O        0.56982364       1.71008861       0.86850352      -0.00046074       0.00003317       0.00013755
O        0.99696224       3.55158527       6.11706004       0.00046074      -0.00003317      -0.00013755
O        3.02100802       4.34084282       2.27199985       0.00039775       0.00006916       0.00000643
O       -1.45422220       0.92083136       4.71356381      -0.00039775      -0.00006916      -0.00000643
H        0.77454579       4.69474948       1.67895087      -0.00008228      -0.00021289      -0.00036664
H        0.79224043       0.56692456       5.30661263       0.00008228       0.00021289       0.00036664
H        2.81618633       2.06413559       1.46163036       0.00020749      -0.00012444       0.00016892
H       -1.24940019       3.19753845       5.52393326      -0.00020749       0.00012444      -0.00016892
H        1.50106181       3.30604628       0.80597939       0.00052271      -0.00013421       0.00019360
H        0.06572431       1.95562775       6.17958428      -0.00052271       0.00013421      -0.00019360
H        2.08970081       0.67552347       2.33478197      -0.00049777      -0.00014707      -0.00024117
H       -0.52291466       4.58615057       4.65078165       0.00049777       0.00014707       0.00024117
H       -2.02339180      -0.47386291       6.57378558       0.00008459       0.00016301      -0.00009282
H        3.59017788       5.73553682       0.41177790      -0.00008459      -0.00016301       0.00009282
H        1.56625325       2.15676672       4.25701983      -0.00021520       0.00006299       0.00034041
H        0.00053260       3.10490747       2.72854403       0.00021520      -0.00006299      -0.00034041
H       -3.00151508       2.96923903       6.63392127      -0.00018461       0.00038849       0.00010619
H        4.56830100       2.29243500       0.35164249       0.00018461      -0.00038849      -0.00010619
H        2.54429507       5.59988338       4.19656388      -0.00019540      -0.00020209      -0.00011339
H       -0.97750909      -0.33820934       2.78899976       0.00019540       0.00020209       0.00011339
H       -2.01110202       1.72059941       5.76944784      -0.00005451       0.00006531       0.00014758
H        3.57788830       3.54107463       1.21611555       0.00005451      -0.00006531      -0.00014758
H        1.55388971       4.35128362       5.06116535      -0.00002031      -0.00006711      -0.00010439
H        0.01289633       0.91039043       1.92439850       0.00002031       0.00006711       0.00010439
