40
Lattice="5.72531842269903 0.00026198899948 -0.62855346875932 -0.00024593799951 5.32390713149136 -0.00016673399967 -4.00571600509328 0.00023120599954 7.83362773553753" Properties=species:S:1:pos:R:3:forces:R:3 pbc="T T T"
C        1.35589723       4.40704446       0.85599914      -0.00009513       0.00014295      -0.00019052
C        0.36345909       0.91735601       6.34890848       0.00009513      -0.00014295       0.00019052
C        2.36614373       1.74517029       2.43218728       0.00016121      -0.00002160      -0.00006094
C       -0.64678739       3.57923010       4.77272034      -0.00016121       0.00002160       0.00006094
C        1.58149161      -0.11865634      -0.17891494      -0.00004499      -0.00023397       0.00038567
C        0.13786497       5.44305673       7.38382240       0.00004499       0.00023397      -0.00038567
C        2.14083083       2.54347395       3.46719629      -0.00002365      -0.00010876      -0.00014424
C       -0.42147445       2.78092644       3.73771154       0.00002365       0.00010876       0.00014424
C        1.20729414       1.26422971      -0.10159826      -0.00018101      -0.00026200       0.00022420
C        0.51206249       4.06017068       7.30650594       0.00018101       0.00026200      -0.00022420
C        2.51496858       3.92637014       3.38973368       0.00006556      -0.00019746       0.00002263
C       -0.79561190       1.39803025       3.81517390      -0.00006556       0.00019746      -0.00002263
N       -2.46787068       2.09147530       6.76727160      -0.00000668       0.00018589      -0.00022471
N        4.18722743       3.23292508       0.43763587       0.00000668      -0.00018589       0.00022471
N        2.18452833       4.75343706       4.35448710       0.00007430       0.00007508       0.00001697
N       -0.46517165       0.57096332       2.85042048      -0.00007430      -0.00007508      -0.00001697
O        0.59709856       1.72031725       0.90784248      -0.00002237       0.00014552       0.00000797
O        1.12225783       3.60408298       6.29706503       0.00002237      -0.00014552      -0.00000797
O        3.12501694       4.38241485       2.38018392       0.00008947       0.00018538      -0.00011827
O       -1.40566060       0.94198569       4.82472370      -0.00008947      -0.00018538       0.00011827
H        0.84499925       4.74831714       1.73891952      -0.00017766      -0.00016712       0.00009256
H        0.87435749       0.57608325       5.46598795       0.00017766       0.00016712      -0.00009256
H        2.87699461       2.08634507       1.54920307       0.00014810      -0.00018486      -0.00003651
H       -1.15763793       3.23805531       5.65570451      -0.00014810       0.00018486       0.00003651
H        1.57882083       3.36319429       0.84148992      -0.00013293      -0.00007739      -0.00005168
H        0.14053582       1.96120610       6.36341772       0.00013293       0.00007739       0.00005168
H        2.14320325       0.70132674       2.44682747       0.00013961      -0.00003702       0.00005656
H       -0.42384657       4.62307364       4.75808012      -0.00013961       0.00003702      -0.00005656
H       -1.97226699      -0.47715661       6.74229932      -0.00001414       0.00019875      -0.00003034
H        3.69162358       5.80155687       0.46260812       0.00001414      -0.00019875       0.00003034
H        1.68897571       2.18480788       4.37968657       0.00003934       0.00021880      -0.00002314
H        0.03038068       3.13959266       2.82522126      -0.00003934      -0.00021880       0.00002314
H       -2.99336954       2.96225484       6.77665003       0.00017946       0.00010799       0.00007199
H        4.71272599       2.36214555       0.42825768      -0.00017946      -0.00010799      -0.00007199
H        2.71004182       5.62421864       4.34500699      -0.00018101       0.00012316      -0.00006119
H       -0.99068531      -0.29981826       2.85990061       0.00018101      -0.00012316       0.00006119
H       -1.99021910       1.72294378       5.91318341      -0.00016635       0.00013370      -0.00002288
H        3.70957590       3.60145661       1.29172395       0.00016635      -0.00013370       0.00002288
H        1.70688652       4.38496338       5.20860698       0.00014244       0.00012058       0.00006968
H        0.01247004       0.93943703       1.99630084      -0.00014244      -0.00012058      -0.00006968
