40
Lattice="5.44201238025824 0.00022705099955 -0.81533685739064 -0.00025799199949 5.14068693485301 -0.00022799899955 -4.10444063789841 0.00012706599975 7.45252630228977" Properties=species:S:1:pos:R:3:forces:R:3 pbc="T T T"
C        1.24807614       4.23849868       0.75159929       0.00219958       0.00603721      -0.00448735
C        0.08923748       0.90254258       5.88536235      -0.00219958      -0.00603721       0.00448735
C        2.14140224       1.66830225       2.15911815      -0.00002365      -0.00043632      -0.00284441
C       -0.80408860       3.47273896       4.47784350       0.00002365       0.00043632       0.00284441
C        1.52740374      -0.11992666      -0.27691155      -0.00287835      -0.00278579       0.00586931
C       -0.19008987       5.26096788       6.91387303       0.00287835       0.00278579      -0.00586931
C        1.86228685       2.45055701       3.18768594       0.00047745       0.00108552       0.00169359
C       -0.52497317       2.69048419       3.44927589      -0.00047745      -0.00108552      -0.00169359
C        1.17719810       1.23275852      -0.18704219      -0.00057644      -0.00216178       0.00120688
C        0.16011577       3.90828268       6.82400388       0.00057644       0.00216178      -0.00120688
C        2.21236094       3.80327053       3.09770760      -0.00195301       0.00106984       0.00411556
C       -0.87504697       1.33777065       3.53925401       0.00195301      -0.00106984      -0.00411556
N       -2.50937782       2.09754097       6.39406109      -0.00071965       0.00462850      -0.00242069
N        3.84669185       3.04350023       0.24290042       0.00071965      -0.00462850       0.00242069
N        1.79438401       4.66801923       3.96912761       0.00209879      -0.00018486      -0.00224534
N       -0.45707004       0.47302194       2.66783397      -0.00209879       0.00018486       0.00224534
O        0.52778825       1.67194825       0.81330500      -0.00054970       0.00129635      -0.00105441
O        0.80952544       3.46909279       5.82365655       0.00054970      -0.00129635       0.00105441
O        2.86169827       4.24245485       2.09737054       0.00150975       0.00192087      -0.00063481
O       -1.52438464       0.89858647       4.53959111      -0.00150975      -0.00192087       0.00063481
H        0.68156605       4.58526192       1.58345937      -0.00096956       0.00126627       0.00076465
H        0.65574798       0.55577928       5.05350210       0.00096956      -0.00126627      -0.00076465
H        2.70789826       2.01500415       1.32716871       0.00015787       0.00088163       0.00047540
H       -1.37058433       3.12603706       5.30979287      -0.00015787      -0.00088163      -0.00047540
H        1.38940363       3.19162077       0.75268389      -0.00029028      -0.00192293      -0.00127938
H       -0.05208972       1.94942041       5.88427778       0.00029028       0.00192293       0.00127938
H        2.00018958       0.62135247       2.15807715       0.00051679       0.00023551       0.00140357
H       -0.66287562       4.51968873       4.47888445      -0.00051679      -0.00023551      -0.00140357
H       -2.09706804      -0.47642672       6.29061362       0.00112614       0.00087160      -0.00156554
H        3.43438193       5.61746778       0.34634783      -0.00112614      -0.00087160       0.00156554
H        1.38233415       2.09398324       4.07278253      -0.00029696       0.00146681      -0.00005785
H       -0.04502048       3.04705810       2.56417932       0.00029696      -0.00146681       0.00005785
H       -3.00367628       2.97612712       6.42600253       0.00200340      -0.00063763       0.00038129
H        4.34098999       2.16491407       0.21095922      -0.00200340       0.00063763      -0.00038129
H        2.28860581       5.54660560       3.93707348      -0.00153778       0.00045740      -0.00022394
H       -0.95129203      -0.40556441       2.69988814       0.00153778      -0.00045740       0.00022394
H       -2.04673307       1.71667212       5.53806925       0.00127552      -0.00151592       0.00007636
H        3.38404715       3.42436906       1.09889211      -0.00127552       0.00151592      -0.00007636
H        1.33179094       4.28714632       4.82511448      -0.00158071      -0.00161954       0.00073482
H        0.00552289       0.85389486       1.81184735       0.00158071       0.00161954      -0.00073482
