40
Lattice="5.79968798155224 0.00026780799947 -0.58213023085096 -0.00024489999952 5.35782561742441 -0.0001532469997 -3.98461877213493 0.0002556819995 7.91832778537034" Properties=species:S:1:pos:R:3:forces:R:3 pbc="T T T"
C        1.39105282       4.43401943       0.88022497      -0.00015452       0.00005271      -0.00004499
C        0.42377134       0.92432984       6.45581946       0.00015452      -0.00005271       0.00004499
C        2.41587693       1.75517901       2.49677955       0.00012676       0.00003085       0.00009050
C       -0.60105276       3.60317019       4.83926488      -0.00012676      -0.00003085      -0.00009050
C        1.59647200      -0.12278370      -0.15845868       0.00011133      -0.00011416       0.00018846
C        0.21835242       5.48113289       7.49450294      -0.00011133       0.00011416      -0.00018846
C        2.21076115       2.55630827       3.53554710      -0.00009076      -0.00009256      -0.00022471
C       -0.39593693       2.80204093       3.80049754       0.00009076       0.00009256       0.00022471
C        1.21218835       1.26369222      -0.08141694       0.00011853      -0.00015735       0.00024348
C        0.60263611       4.09465698       7.41746142      -0.00011853       0.00015735      -0.00024348
C        2.59500383       3.94278964       3.45835253      -0.00010464      -0.00022986      -0.00031213
C       -0.78017931       1.41555955       3.87769187       0.00010464       0.00022986       0.00031213
N       -2.46667230       2.08540339       6.85559275      -0.00001466       0.00010079      -0.00023166
N        4.28149689       3.27294580       0.48045153       0.00001466      -0.00010079       0.00023166
N        2.28940912       4.76429567       4.43967360      -0.00002263       0.00013730       0.00034247
N       -0.47458460       0.59405352       2.89637080       0.00002263      -0.00013730      -0.00034247
O        0.61210664       1.72000412       0.93321758       0.00005091      -0.00004165      -0.00000077
O        1.20271759       3.63834491       6.40282673      -0.00005091       0.00004165       0.00000077
O        3.19491630       4.39905196       2.44359017      -0.00005991      -0.00004499       0.00000668
O       -1.38009212       0.95929738       4.89245426       0.00005991       0.00004499      -0.00000668
H        0.89416299       4.77394804       1.77417506      -0.00013781      -0.00016944       0.00011827
H        0.92066159       0.58440115       5.56186921       0.00013781       0.00016944      -0.00011827
H        2.91271146       2.09499611       1.60276084       0.00014681      -0.00016147      -0.00013550
H       -1.09788694       3.26335307       5.73328354      -0.00014681       0.00016147       0.00013550
H        1.63155153       3.39199830       0.86126663      -0.00001311       0.00004782      -0.00003780
H        0.18327297       1.96635090       6.47477782       0.00001311      -0.00004782       0.00003780
H        2.17534377       0.71316982       2.51588067       0.00001671       0.00006556       0.00003831
H       -0.36051925       4.64517937       4.82016374      -0.00001671      -0.00006556      -0.00003831
H       -1.94345485      -0.47913059       6.84083325      -0.00004319       0.00023346      -0.00000000
H        3.75827927       5.83747965       0.49521099       0.00004319      -0.00023346       0.00000000
H        1.76618280       2.19978164       4.45466441       0.00003548       0.00022343       0.00001723
H        0.04864144       3.15856770       2.88138022      -0.00003548      -0.00022343      -0.00001723
H       -2.99604463       2.95592576       6.86684904      -0.00008459       0.00000797       0.00006608
H        4.81086893       2.40242343       0.46919547       0.00008459      -0.00000797      -0.00006608
H        2.81880735       5.63481638       4.42831042       0.00009462       0.00001234      -0.00006942
H       -1.00398300      -0.27646720       2.90773399      -0.00009462      -0.00001234       0.00006942
H       -1.98417785       1.72536153       6.00106935       0.00010233      -0.00018512       0.00010336
H        3.79900249       3.63298766       1.33497482      -0.00010233       0.00018512      -0.00010336
H        1.80690942       4.40432545       5.29422898      -0.00008408      -0.00017818      -0.00013447
H        0.00791498       0.95402376       2.04181565       0.00008408       0.00017818       0.00013447
