40
Lattice="5.66687432781439 0.00026189799948 -0.66899829367949 -0.00023933599953 5.29097319455637 -0.00015472999969 -4.02873220304785 0.00023913799953 7.75746085168787" Properties=species:S:1:pos:R:3:forces:R:3 pbc="T T T"
C        1.32967763       4.37836545       0.83369522      -0.00019155       0.00023423      -0.00003522
C        0.30822500       0.91310890       6.25461267       0.00019155      -0.00023423       0.00003522
C        2.32239553       1.73295544       2.37600040       0.00027639      -0.00009667      -0.00032833
C       -0.68449289       3.55851883       4.71230749      -0.00027639       0.00009667       0.00032833
C        1.57070929      -0.11625428      -0.19765584       0.00008767       0.00003728       0.00032447
C        0.06719359       5.40772855       7.28596357      -0.00008767      -0.00003728      -0.00032447
C        2.08166021       2.52941090       3.40743378      -0.00022626       0.00012470       0.00006531
C       -0.44375752       2.76206337       3.68087432       0.00022626      -0.00012470      -0.00006531
C        1.20275964       1.26213438      -0.11912441       0.00016686      -0.00013370       0.00057078
C        0.43514329       4.02933989       7.20743236      -0.00016686       0.00013370      -0.00057078
C        2.44956271       3.90780103       3.32875063      -0.00028179       0.00052219      -0.00006453
C       -0.81165973       1.38367324       3.75955721       0.00028179      -0.00052219       0.00006453
N       -2.47482926       2.09555264       6.68987922      -0.00007970       0.00070654      -0.00007868
N        4.11273230       3.19592163       0.39842852       0.00007970      -0.00070654       0.00007868
N        2.09856405       4.74104524       4.27722005      -0.00011596      -0.00031162      -0.00034658
N       -0.46066107       0.55042903       2.81108780       0.00011596       0.00031162       0.00034658
O        0.58287302       1.71621940       0.88616534      -0.00011261      -0.00004139      -0.00013164
O        1.05502968       3.57525471       6.20214244       0.00011261       0.00004139       0.00013164
O        3.06928380       4.36184537       2.32333845       0.00013730      -0.00008279       0.00007199
O       -1.43138116       0.92962905       4.76496944      -0.00013730       0.00008279      -0.00007199
H        0.80619129       4.71972741       1.70676096      -0.00009385       0.00039878       0.00014424
H        0.83171175       0.57174686       5.38154677       0.00009385      -0.00039878      -0.00014424
H        2.84583574       2.07420309       1.50286515       0.00007430       0.00039004      -0.00009667
H       -1.20793276       3.21727119       5.58544270      -0.00007430      -0.00039004       0.00009667
H        1.53849906       3.33357986       0.82238948      -0.00014295       0.00031033       0.00029053
H        0.09940389       1.95789441       6.26591842       0.00014295      -0.00031033      -0.00029053
H        2.11352413       0.68818197       2.38744370       0.00017124       0.00040495      -0.00028282
H       -0.47562115       4.60329230       4.70086415      -0.00017124      -0.00040495       0.00028282
H       -1.99886370      -0.47500563       6.65332869      -0.00031907       0.00060858      -0.00013421
H        3.63676659       5.76647977       0.43497901       0.00031907      -0.00060858       0.00013421
H        1.62262158       2.17048932       4.31399940       0.00035018       0.00062632       0.00005039
H        0.01528111       3.12098510       2.77430869      -0.00035018      -0.00062632      -0.00005039
H       -2.99720395       2.96634527       6.69905984      -0.00020055      -0.00007251       0.00010284
H        4.63510670       2.32512900       0.38924814       0.00020055       0.00007251      -0.00010284
H        2.62097670       5.61181426       4.26793375       0.00042860       0.00032807      -0.00009847
H       -0.98307389      -0.32033999       2.82037412      -0.00042860      -0.00032807       0.00009847
H       -2.00081278       1.72157551       5.83597790       0.00025968      -0.00023783       0.00047180
H        3.63871588       3.56989876       1.25232973      -0.00025968       0.00023783      -0.00047180
H        1.62456003       4.36711674       5.13115696      -0.00022729      -0.00014938      -0.00051139
H        0.01334283       0.92435755       1.95715112       0.00022729       0.00014938       0.00051139
