40
Lattice="5.96449648822693 0.00027111799946 -0.4997294580136 -0.00024683899951 5.40714142032707 -8.254799984e-05 -3.96902294516571 0.00037108999927 8.07411864906283" Properties=species:S:1:pos:R:3:forces:R:3 pbc="T T T"
C        1.47323180       4.46067872       0.92029220      -0.00009487       0.00000694       0.00012393
C        0.52199476       0.94710510       6.65401462       0.00009487      -0.00000694      -0.00012393
C        2.50613132       1.75712507       2.61727029      -0.00001671       0.00027794       0.00035224
C       -0.51090474       3.65065869       4.95703653       0.00001671      -0.00027794      -0.00035224
C        1.63613689      -0.13624684      -0.12183109       0.00014090      -0.00012007      -0.00010619
C        0.35908993       5.54403058       7.69613772      -0.00014090       0.00012007       0.00010619
C        2.34366113       2.56749426       3.65939819       0.00002185      -0.00028719      -0.00043349
C       -0.34843450       2.84028950       3.91490884      -0.00002185       0.00028719       0.00043349
C        1.21912530       1.25042926      -0.04140184      -0.00006968      -0.00005476       0.00068674
C        0.77610156       4.15735449       7.61570871       0.00006968       0.00005476      -0.00068674
C        2.76073335       3.95414557       3.57876494      -0.00030442      -0.00038155      -0.00009770
C       -0.76550642       1.45363817       3.99554184       0.00030442       0.00038155       0.00009770
N       -2.49707508       2.06731201       7.02650940       0.00023089       0.00001028      -0.00049699
N        4.49230208       3.34047174       0.54779726      -0.00023089      -0.00001028       0.00049699
N        2.50832234       4.77069360       4.58504414       0.00014655       0.00038669       0.00017175
N       -0.51309541       0.63709014       2.98926264      -0.00014655      -0.00038669      -0.00017175
O        0.63300841       1.69824565       0.98430406       0.00015967      -0.00039955      -0.00033116
O        1.36221822       3.70953793       6.59000264      -0.00015967       0.00039955       0.00033116
O        3.34655013       4.40187893       2.55285526       0.00012393      -0.00019206      -0.00012856
O       -1.35132355       1.00590497       5.02145155      -0.00012393       0.00019206       0.00012856
H        0.99638420       4.79255341       1.83233751       0.00006325       0.00027691      -0.00021623
H        0.99884279       0.61523033       5.74196914      -0.00006325      -0.00027691       0.00021623
H        2.98289129       2.08880629       1.70511802      -0.00001723       0.00031085       0.00011596
H       -0.98766437       3.31897744       5.86918875       0.00001723      -0.00031085      -0.00011596
H        1.75385787       3.42546164       0.89011798      -0.00009230       0.00009822       0.00006479
H        0.24136904       1.98232210       6.68418886       0.00009230      -0.00009822      -0.00006479
H        2.22537127       0.72195298       2.64765465       0.00006428       0.00005219      -0.00006273
H       -0.23014433       4.68583076       4.92665215      -0.00006428      -0.00005219       0.00006273
H       -1.89627612      -0.48085267       7.02173247      -0.00030056      -0.00005194       0.00020749
H        3.89150294       5.88863630       0.55257414       0.00030056       0.00005194      -0.00020749
H        1.90722125       2.22265022       4.59007177       0.00023603      -0.00009539      -0.00006196
H        0.08800539       3.18513367       2.98423525      -0.00023603       0.00009539       0.00006196
H       -3.04261228       2.93223206       7.04242537      -0.00005502       0.00030262       0.00025505
H        5.03783900       2.47555168       0.53188152       0.00005502      -0.00030262      -0.00025505
H        3.05395308       5.63559073       4.56898337      -0.00009873       0.00006788      -0.00022574
H       -1.05872633      -0.22780700       3.00532342       0.00009873      -0.00006788       0.00022574
H       -2.00192275       1.73151655       6.17157242      -0.00013215       0.00007302       0.00004834
H        3.99714980       3.67626719       1.40273413       0.00013215      -0.00007302      -0.00004834
H        2.01312119       4.43503115       5.44000094       0.00003831      -0.00002905       0.00011133
H       -0.01789437       0.97275261       2.13430609      -0.00003831       0.00002905      -0.00011133
