40
Lattice="5.47777584018764 0.00024495699952 -0.79500158443078 -0.00024586699951 5.16449999480601 -0.00023854399953 -4.09720991491269 0.00010504099979 7.49548455620497" Properties=species:S:1:pos:R:3:forces:R:3 pbc="T T T"
C        1.25885406       4.26098650       0.76210925      -0.00286112      -0.00345248       0.00713944
C        0.12146586       0.90386369       5.93813535       0.00286112       0.00345248      -0.00713944
C        2.17002315       1.67884917       2.19037453       0.00372116      -0.00502959      -0.00920198
C       -0.78970321       3.48600096       4.50987008      -0.00372116       0.00502959       0.00920198
C        1.53510576      -0.11812587      -0.26478165       0.00111329       0.00459842      -0.00672369
C       -0.15478559       5.28297600       6.96502608      -0.00111329      -0.00459842       0.00672369
C        1.89395588       2.46427756       3.21740535      -0.00183345       0.00598630       0.00892764
C       -0.51363590       2.70057257       3.48283943       0.00183345      -0.00598630      -0.00892764
C        1.18225345       1.23903482      -0.17689954      -0.00089809       0.00119093      -0.00095388
C        0.19806674       3.92581530       6.87714419       0.00089809      -0.00119093       0.00095388
C        2.24667158       3.82147716       3.12942074       0.00196972       0.00052708      -0.00107421
C       -0.86635131       1.34337294       3.57082382      -0.00196972      -0.00052708       0.00107421
N       -2.50608040       2.09906309       6.43478792       0.00278836      -0.00426752      -0.00107549
N        3.88640073       3.06578703       0.26545654      -0.00278836       0.00426752       0.00107549
N        1.83773191       4.68142498       4.01311875      -0.00345325      -0.00354015       0.00259116
N       -0.45741164       0.48342511       2.68712579       0.00345325       0.00354015      -0.00259116
O        0.53510593       1.68040655       0.82242558       0.00047051      -0.00076696      -0.00178332
O        0.84521407       3.48444341       5.87781892      -0.00047051       0.00076696       0.00178332
O        2.89378397       4.26283039       2.13003219      -0.00126781      -0.00112203       0.00282847
O       -1.51346404       0.90201985       4.57021241       0.00126781       0.00112203      -0.00282847
H        0.69893110       4.60638653       1.60109570       0.00074433       0.00070577      -0.00226668
H        0.68138923       0.55846358       5.09914874      -0.00074433      -0.00070577       0.00226668
H        2.72992070       2.02422441       1.35134020      -0.00104824       0.00052682       0.00269143
H       -1.34960046       3.14062572       5.34890434       0.00104824      -0.00052682      -0.00269143
H        1.41186400       3.21416077       0.76152668       0.00019258       0.00199749      -0.00103101
H       -0.03154378       1.95068933       5.93871794      -0.00019258      -0.00199749       0.00103101
H        2.01711155       0.63199719       2.19104503      -0.00011930       0.00243072       0.00099450
H       -0.63679129       4.53285293       4.50919953       0.00011930      -0.00243072      -0.00099450
H       -2.08416580      -0.47476878       6.34256638      -0.00137708       0.00244281       0.00139251
H        3.46448599       5.63961875       0.35767804       0.00137708      -0.00244281      -0.00139251
H        1.41605034       2.10756261       4.10559415       0.00165528       0.00264335      -0.00189927
H       -0.03573037       3.05728765       2.59465065      -0.00165528      -0.00264335       0.00189927
H       -3.00762519       2.97493310       6.46141373       0.00045894       0.00315757      -0.00026122
H        4.38794520       2.18991701       0.23883097      -0.00045894      -0.00315757       0.00026122
H        2.33919670       5.55734329       3.98642059      -0.00048234       0.00311541       0.00023860
H       -0.95887662      -0.39249318       2.71382398       0.00048234      -0.00311541      -0.00023860
H       -2.04150868       1.71815232       5.57939984       0.00026174      -0.00098807       0.00037230
H        3.42182907       3.44669778       1.12084448      -0.00026174       0.00098807      -0.00037230
H        1.37319186       4.30054114       4.86855426      -0.00012830      -0.00087572      -0.00064072
H        0.00712828       0.86430897       1.83169053       0.00012830       0.00087572       0.00064072
