40
Lattice="5.55431651203656 0.00024253499952 -0.74854153552248 -0.0002543179995 5.21704997470228 -0.00022129399956 -4.07650239195356 0.00014316299972 7.59601278100654" Properties=species:S:1:pos:R:3:forces:R:3 pbc="T T T"
C        1.28413500       4.31113528       0.78770072       0.00016095      -0.00003137      -0.00032447
C        0.19342466       0.90630055       6.05954935      -0.00016095       0.00003137       0.00032447
C        2.23162004       1.70271748       2.26152507      -0.00004294      -0.00015247       0.00002031
C       -0.75406037       3.51471828       4.58572501       0.00004294       0.00015247      -0.00002031
C        1.55009658      -0.11450273      -0.23849360       0.00009487      -0.00011313       0.00042552
C       -0.07253668       5.33193849       7.08574351      -0.00009487       0.00011313      -0.00042552
C        1.96584994       2.49419656       3.28786684      -0.00020517      -0.00001491      -0.00011878
C       -0.48829022       2.72323920       3.55938343       0.00020517       0.00001491       0.00011878
C        1.19184173       1.25192956      -0.15454447       0.00030468      -0.00001723      -0.00043195
C        0.28571821       3.96550620       7.00179459      -0.00030468       0.00001723       0.00043195
C        2.32397946       3.86065458       3.20379590      -0.00037615       0.00000566       0.00056719
C       -0.84641946       1.35678116       3.64345413       0.00037615      -0.00000566      -0.00056719
N       -2.49518496       2.10048869       6.53101554      -0.00023526      -0.00023397       0.00004474
N        3.97274502       3.11694707       0.31623439       0.00023526       0.00023397      -0.00004474
N        1.93444106       4.70911312       4.11418423       0.00032267      -0.00020800      -0.00017278
N       -0.45688106       0.50832263       2.73306579      -0.00032267       0.00020800       0.00017278
O        0.55283251       1.69869637       0.84472747       0.00001466       0.00017972      -0.00021854
O        0.92472721       3.51873923       6.00252251      -0.00001466      -0.00017972       0.00021854
O        2.96293216       4.30739537       2.20447793       0.00003728       0.00021803       0.00014013
O       -1.48537249       0.91004052       4.64277214      -0.00003728      -0.00021803      -0.00014013
H        0.73787308       4.65395148       1.64056178      -0.00011261       0.00008973       0.00021443
H        0.73968699       0.56348428       5.20668813       0.00011261      -0.00008973      -0.00021443
H        2.77785000       2.04550217       1.40862765       0.00006248       0.00005862      -0.00013601
H       -1.30029002       3.17193359       5.43862236      -0.00006248      -0.00005862       0.00013601
H        1.46152776       3.26503445       0.78290219      -0.00004268      -0.00008150      -0.00009205
H        0.01603221       1.95240129       6.06434789       0.00004268       0.00008150       0.00009205
H        2.05431404       0.65660267       2.26641893       0.00004294      -0.00006762       0.00009822
H       -0.57675404       4.56083308       4.58083110      -0.00004294       0.00006762      -0.00009822
H       -2.05404832      -0.47136525       6.46249368       0.00007019       0.00004911      -0.00030545
H        3.53160824       5.68880087       0.38475620      -0.00007019      -0.00004911       0.00030545
H        1.49353655       2.13722547       4.18293295      -0.00002391       0.00009307       0.00021366
H       -0.01597685       3.08021043       2.66431732       0.00002391      -0.00009307      -0.00021366
H       -3.00665270       2.97361198       6.54702773      -0.00006196      -0.00014424      -0.00023757
H        4.48421245       2.24382377       0.30022245       0.00006196       0.00014424       0.00023757
H        2.44584176       5.58227727       4.09809340       0.00002237      -0.00019180       0.00024297
H       -0.96828194      -0.36484151       2.74915664      -0.00002237       0.00019180      -0.00024297
H       -2.02721391       1.71963350       5.67688108      -0.00010542       0.00006479       0.00007636
H        3.50477404       3.49780225       1.17036872       0.00010542      -0.00006479      -0.00007636
H        1.46650784       4.32828954       4.96835215       0.00008125       0.00004294      -0.00003368
H        0.01105204       0.88914622       1.87889812      -0.00008125      -0.00004294       0.00003368
