40
Lattice="6.52716035811631 0.00025760199949 -0.32002252536832 -0.00029542199942 5.53319355407826 -0.00019839299961 -4.06403038897818 0.00024415299952 8.4819156212579" Properties=species:S:1:pos:R:3:forces:R:3 pbc="T T T"
C        1.68959941       4.55498557       1.04699118      -0.00003831       0.00011904      -0.00036895
C        0.77323500       0.97870999       7.11470377       0.00003831      -0.00011904       0.00036895
C        2.80509619       1.78846062       2.87383057       0.00007019      -0.00001440       0.00019360
C       -0.34226175       3.74523488       5.28786441      -0.00007019       0.00001440      -0.00019360
C        1.77779030      -0.13828375       0.01411722       0.00010490      -0.00035867       0.00016121
C        0.68504438       5.67197922       8.14757754      -0.00010490       0.00035867      -0.00016121
C        2.71719740       2.62848356       3.90681857      -0.00013653      -0.00026637      -0.00000566
C       -0.25436288       2.90521193       4.25487662       0.00013653       0.00026637       0.00000566
C        1.23178434       1.22378633       0.09467888      -0.00015787      -0.00029285       0.00101764
C        1.23105041       4.30990917       8.06701614       0.00015787       0.00029285      -0.00101764
C        3.26311153       3.99058203       3.82610014      -0.00011647      -0.00016481      -0.00031959
C       -0.80027671       1.54311346       4.33559479       0.00011647       0.00016481       0.00031959
N       -2.67085026       2.02690235       7.52769202       0.00036613       0.00066309      -0.00091943
N        5.13368516       3.50679314       0.63400280      -0.00036613      -0.00066309       0.00091943
N        3.10175290       4.79351882       4.87497082      -0.00014475       0.00051679       0.00027357
N       -0.63891806       0.74017665       3.28672411       0.00014475      -0.00051679      -0.00027357
O        0.62189130       1.62958612       1.12220289       0.00016172      -0.00013601       0.00012958
O        1.84094318       3.90410921       7.03949195      -0.00016172       0.00013601      -0.00012958
O        3.87289512       4.39634246       2.79850388       0.00003780      -0.00005219      -0.00045251
O       -1.41006070       1.13735318       5.36319108      -0.00003780       0.00005219       0.00045251
H        1.21001755       4.86139101       1.97547475      -0.00018975       0.00016635      -0.00037178
H        1.25281733       0.67230446       6.18622005       0.00018975      -0.00016635       0.00037178
H        3.28460457       2.09479585       1.94528483       0.00017792       0.00016095       0.00040289
H       -0.82176974       3.43889964       6.21641010      -0.00017792      -0.00016095      -0.00040289
H        2.06555143       3.54185190       0.99901285      -0.00020440       0.00004705       0.00002340
H        0.39728338       1.99184357       7.16268215       0.00020440      -0.00004705      -0.00002340
H        2.42921800       0.77530443       2.92193952       0.00021340       0.00008845      -0.00002288
H        0.03361683       4.75839104       5.23975545      -0.00021340      -0.00008845       0.00002288
H       -1.82155889      -0.43193562       7.55593560      -0.00003188       0.00007533       0.00002494
H        4.28439360       5.96563098       0.60575916       0.00003188      -0.00007533      -0.00002494
H        2.25258920       2.33465070       4.84697293       0.00005554       0.00009719      -0.00007353
H        0.21024531       3.19904493       3.31472224      -0.00005554      -0.00009719       0.00007353
H       -3.25892930       2.87316119       7.51069695      -0.00022574       0.00008793      -0.00000129
H        5.72176388       2.66053428       0.65099810       0.00022574      -0.00008793       0.00000129
H        3.68976178       5.63983342       4.89187056       0.00017895       0.00006068       0.00003651
H       -1.22692717      -0.10613793       3.26982439      -0.00017895      -0.00006068      -0.00003651
H       -2.14941442       1.73250101       6.68198856       0.00019849       0.00012804       0.00026585
H        4.61224938       3.80119448       1.47970613      -0.00019849      -0.00012804      -0.00026585
H        2.58033352       4.49916823       5.72069286      -0.00032319       0.00006428      -0.00005708
H       -0.11749882       1.03452726       2.44100234       0.00032319      -0.00006428       0.00005708
