40
Lattice="4.94299244424323 -0.01375989597284 -0.00179514099646 -0.59837648181889 4.77908069956677 -0.01256963097519 -3.91899350526446 0.80596639740914 6.68318133680834" Properties=species:S:1:pos:R:3:forces:R:3 pbc="T T T"
C        1.46300539       3.41637189       1.13685083       0.00022009       0.00000026       0.00005656
C       -1.03738620       2.15490604       5.53196880       0.00011339       0.00011287      -0.00039698
C        1.12102566       1.11148095       2.42719151       0.00002751      -0.00015401      -0.00010876
C       -0.69540404       4.45979797       4.24162506       0.00008150       0.00017304       0.00014141
C        1.86411958      -0.41494692       0.08461953       0.00001414      -0.00021417      -0.00007405
C       -1.43849669       5.98622812       6.58419498      -0.00003342       0.00000823       0.00029851
C        0.81554921       2.31646683       3.30869739      -0.00005836      -0.00001980       0.00021494
C       -0.38992656       3.25481208       3.36011934       0.00004268       0.00003162      -0.00019849
C        0.59591245       0.34247347       0.28185603       0.00002005       0.00026457       0.00001080
C       -0.17029100       5.22880051       6.38696377       0.00012496       0.00029902      -0.00034736
C        2.04459153       3.14627905       3.30311485       0.00004859       0.00008665      -0.00033707
C       -1.61896976       2.42500127       3.36570279       0.00003214      -0.00023577       0.00020440
N       -3.31201966       2.40021373       6.41523985      -0.00039466       0.00018846       0.00064355
N        3.73765223       3.17106850       0.25356552      -0.00079601      -0.00048568       0.00061681
N        1.88426092       3.89223132       4.43367836      -0.00035198      -0.00019977       0.00041729
N       -1.45863296       1.67904762       2.23513503      -0.00024785       0.00017741      -0.00004319
O        0.26354724       0.37097574       1.63423867       0.00011878       0.00004757       0.00000746
O        0.16207565       5.20030287       5.03457880      -0.00012033      -0.00001286      -0.00008176
O        2.17929533       3.97248236       2.18368029      -0.00008562      -0.00016352      -0.00000848
O       -1.75367328       1.59879666       4.48513701       0.00009179       0.00016738      -0.00006531
H        0.54844147       3.06923537       1.53753263       0.00007430      -0.00027125      -0.00006993
H       -0.12281775       2.50204445       5.13128226      -0.00026919       0.00019566       0.00015889
H        1.87909280       1.42474406       1.76253493      -0.00008742       0.00002057       0.00009025
H       -1.45346992       4.14653523       4.90628199       0.00007353      -0.00003085      -0.00007790
H        1.96685839       2.56712732       0.76190923       0.00013550       0.00029311      -0.00018743
H       -1.54123491       3.00415145       5.90690728      -0.00016995      -0.00022574       0.00022754
H        1.56404404       0.42927987       3.11949527      -0.00021777       0.00001157      -0.00004834
H       -1.13842121       5.14199919       3.54932174       0.00020260       0.00000540       0.00003959
H       -2.16250298      -0.23840473       5.90859065      -0.00000514       0.00024091       0.00001697
H        2.58812555       5.80968436       0.76022601       0.00000360      -0.00024837      -0.00003240
H        0.88663538       1.84368794       4.26879892      -0.00000874       0.00037024       0.00008305
H       -0.46101235       3.72759128       2.40001789       0.00000746      -0.00038052      -0.00007533
H       -4.27653299       2.62983072       6.28236498       0.00028025      -0.00003625       0.00009307
H        4.70214885       2.94144629       0.38644839       0.00032524      -0.00005014      -0.00006839
H        2.03845214       4.88497881       4.30953156       0.00027331       0.00003959       0.00019206
H       -1.61282909       0.68629937       2.35928533      -0.00025197       0.00003959      -0.00022189
H       -2.94400584       2.33836176       5.48523125       0.00004165      -0.00003471      -0.00040238
H        3.36962723       3.23292171       1.18359527       0.00029645      -0.00007302      -0.00051268
H        0.97000577       3.78036302       4.78637370       0.00027254       0.00009333      -0.00006119
H       -0.54438710       1.79091598       1.88244384       0.00017715      -0.00003060      -0.00009410
