40
Lattice="5.51022797512359 0.08448175683324 -0.10075672680112 -0.55669247990117 5.66684989981444 -0.1177388057676 -4.49420050212908 0.71599170258673 7.37318856344637" Properties=species:S:1:pos:R:3:forces:R:3 pbc="T T T"
C        1.64962562       4.25787972       1.14646441      -0.00066952      -0.00375278       0.00213556
C       -1.19029064       2.20943345       6.00822891       0.00066129       0.00378518      -0.00214481
C        1.21764983       1.50371474       2.46481575       0.00369030      -0.00313752      -0.00302207
C       -0.75831474       4.96359927       4.68987686      -0.00369030       0.00311283       0.00307144
C        2.07773505      -0.36050205       0.13344185      -0.00086003      -0.00298197      -0.00281124
C       -1.61840005       6.82781560       7.02125087       0.00086209       0.00299174       0.00285778
C        0.92008345       2.76109835       3.49977364       0.00007430      -0.00224020       0.00401915
C       -0.46074836       3.70621524       3.65491978      -0.00007508       0.00224637      -0.00403303
C        0.66480956       0.44429535       0.29019785      -0.00175786      -0.00028951       0.00256390
C       -0.20547478       6.02301788       6.86449582       0.00177946       0.00033733      -0.00261096
C        2.26811718       3.67390141       3.48602430       0.00084024       0.00264155      -0.00437525
C       -1.80878203       2.79341215       3.66866826      -0.00086132      -0.00260478       0.00444827
N       -3.75909906       2.43566754       7.04674313      -0.00046588       0.00332906      -0.00324499
N        4.21843578       4.03164660       0.10794769       0.00028436      -0.00334475       0.00348153
N        2.14685352       4.46367234       4.65743838      -0.00226206       0.00605058       0.00425620
N       -1.68752055       2.00364221       2.49725613       0.00245617      -0.00608220      -0.00438579
O        0.30757343       0.64402531       1.69755984       0.00407906       0.00144985      -0.00157994
O        0.15176138       5.82328858       5.45713345      -0.00407597      -0.00143879       0.00156477
O        2.39755332       4.59764983       2.33266914      -0.00278579      -0.00420067      -0.00146553
O       -1.93821871       1.86966416       4.82202422       0.00279016       0.00419347       0.00146296
H        0.64645382       4.01724669       1.48159692       0.00553533       0.00141719      -0.00205097
H       -0.18711914       2.45006727       5.67309616      -0.00553250      -0.00142053       0.00205174
H        1.92190165       1.89137544       1.74253318      -0.00434516      -0.00228108       0.00458556
H       -1.46256644       4.57593837       5.41216038       0.00435236       0.00228648      -0.00460330
H        2.06614960       3.35584332       0.70137318      -0.00249166       0.00423126       0.00264309
H       -1.60681450       3.11147061       6.45332015       0.00249783      -0.00424875      -0.00264824
H        1.72635223       0.80946313       3.13850051      -0.00226566       0.00327893      -0.00377489
H       -1.26701688       5.65785068       4.01619313       0.00225254      -0.00326324       0.00375535
H       -2.59297564      -0.30478510       6.65225926       0.00051139       0.00285932       0.00334372
H        3.05231074       6.77209944       0.50243423      -0.00051808      -0.00288041      -0.00336994
H        1.00518986       2.23617599       4.45474500      -0.00048542       0.00308327      -0.00429811
H       -0.54585481       4.23113786       2.69994835       0.00048748      -0.00308789       0.00430017
H       -4.69698320       2.81135397       6.96224155       0.00381603      -0.00281999       0.00004191
H        5.15631755       3.65596000       0.19245167      -0.00373504       0.00279865      -0.00004679
H        2.38685784       5.43738770       4.47559302      -0.00085772      -0.00475037       0.00045149
H       -1.92752249       1.02992636       2.67909989       0.00084255       0.00473777      -0.00043837
H       -3.36564023       2.38524613       6.10700863      -0.00184322      -0.00060112       0.00319254
H        3.82497452       4.08206769       1.04768657       0.00191521       0.00058775      -0.00337303
H        1.20356399       4.49504172       5.00791434       0.00346302      -0.00070217      -0.00220164
H       -0.74422773       1.97227163       2.14677829      -0.00361266       0.00071065       0.00225177
