40
Lattice="5.27304743359175 0.01364423597307 -0.05518223189108 -0.6080975087997 5.20025110673544 -0.0469127419074 -4.25049066561013 0.79790195542505 7.10214846298136" Properties=species:S:1:pos:R:3:forces:R:3 pbc="T T T"
C        1.55685837       3.82478480       1.18387115      -0.00004731      -0.00082635       0.00139817
C       -1.14239378       2.18700338       5.81617981      -0.00042500       0.00086955      -0.00116368
C        1.14878163       1.28822068       2.48448346       0.00026945      -0.00125187      -0.00069754
C       -0.73432228       4.72356738       4.51557113      -0.00026714       0.00130226       0.00060832
C        1.98557011      -0.38918006       0.12164050      -0.00009282      -0.00061681      -0.00100607
C       -1.57111111       6.40096831       6.87841399       0.00012958       0.00064123       0.00092688
C        0.85672756       2.52786048       3.45557533       0.00004062      -0.00039441       0.00095465
C       -0.44226823       3.48392814       3.54447808      -0.00003754       0.00038952      -0.00093485
C        0.62435302       0.39167843       0.29235531      -0.00066643      -0.00078342       0.00159794
C       -0.20989383       5.62011323       6.70769718       0.00069008       0.00050419      -0.00150075
C        2.16257690       3.39893633       3.44665880       0.00032499       0.00079833      -0.00222298
C       -1.74811737       2.61285176       3.55339423      -0.00034144      -0.00075051       0.00227671
N       -3.58247729       2.46909900       6.82094816       0.00015812       0.00238855      -0.00112023
N        3.99694022       3.54268547       0.17910804      -0.00050394      -0.00202269       0.00088652
N        2.03454747       4.17035382       4.61074551      -0.00066052       0.00325425       0.00203966
N       -1.62008864       1.84143635       2.38930885       0.00070885      -0.00340491      -0.00210985
O        0.26252823       0.49541804       1.68407065       0.00157454       0.00014604       0.00018203
O        0.15193129       5.51637035       5.31598256      -0.00158509      -0.00012778      -0.00014707
O        2.28323915       4.28704383       2.31027261      -0.00103410      -0.00193373      -0.00081195
O       -1.86878037       1.72474459       4.68978088       0.00108012       0.00194684       0.00082250
H        0.59566856       3.50230128       1.54184791       0.00129944       0.00034504      -0.00067491
H       -0.18121218       2.50948625       5.45820681      -0.00103178      -0.00026662       0.00056153
H        1.89463947       1.63589230       1.79777976      -0.00127964      -0.00047617       0.00074305
H       -1.48017982       4.37589661       5.20227340       0.00124904       0.00045791      -0.00070782
H        2.02802578       2.94706757       0.77435696      -0.00081427       0.00087109       0.00092714
H       -1.61356741       3.06472274       6.22569747       0.00092097      -0.00102227      -0.00100504
H        1.61337734       0.58588524       3.16673191      -0.00038772       0.00079396      -0.00106649
H       -1.19891807       5.42590383       3.83332133       0.00040521      -0.00082892       0.00109709
H       -2.41676431      -0.25458172       6.37652083      -0.00009385       0.00078316       0.00087443
H        2.83122371       6.26637019       0.62353264       0.00009333      -0.00077107      -0.00085952
H        0.92452527       2.01619731       4.41337284      -0.00008536       0.00087546      -0.00092277
H       -0.51006590       3.99559118       2.58668084       0.00008742      -0.00086698       0.00091480
H       -4.53633156       2.76916602       6.67934863       0.00038361      -0.00064586       0.00023397
H        4.95078708       3.24262316       0.32070361      -0.00003291       0.00055459      -0.00015684
H        2.23312681       5.15829477       4.45845941      -0.00037744      -0.00213530       0.00025582
H       -1.81866769       0.85349286       2.54159433       0.00039081       0.00222272      -0.00026739
H       -3.17477215       2.43434656       5.89358313      -0.00052656      -0.00046794       0.00066386
H        3.58923200       3.57744223       1.10646982       0.00053016       0.00044943      -0.00060524
H        1.09986559       4.13838012       4.96411665       0.00050008      -0.00025994      -0.00074665
H       -0.68540574       1.87340840       2.03593683      -0.00054610       0.00025968       0.00076285
