40
Lattice="5.14901811183657 0.00055408799891 -0.03435678693218 -0.60805470679979 5.01911123409298 -0.02883222294309 -4.12474332785834 0.80678685640752 6.94202402229743" Properties=species:S:1:pos:R:3:forces:R:3 pbc="T T T"
C        1.52046870       3.65125215       1.16897113       0.00075565      -0.00029362       0.00047103
C       -1.10425868       2.17519017       5.70987011       0.00018666       0.00041112      -0.00104412
C        1.13695125       1.21244868       2.46655236      -0.00002083      -0.00069883      -0.00043066
C       -0.72073184       4.61399375       4.41228492       0.00009153       0.00082327       0.00023911
C        1.93871416      -0.39879116       0.10615656       0.00006402      -0.00051036      -0.00062015
C       -1.52249298       6.22523653       6.77267589      -0.00014681       0.00037152       0.00086980
C        0.84018489       2.43872405       3.40442493      -0.00023217      -0.00030982       0.00057618
C       -0.42396454       3.38771989       3.47441014       0.00021674       0.00029336      -0.00056770
C        0.61259128       0.37152691       0.28722618      -0.00034016      -0.00065615       0.00111534
C       -0.19637124       5.45491844       6.59160887       0.00036021       0.00050934      -0.00110583
C        2.11817222       3.29259731       3.39507324       0.00020157       0.00036330      -0.00155166
C       -1.70195234       2.53384645       3.48376247      -0.00017663      -0.00036433       0.00149792
N       -3.48176936       2.44918246       6.66669103       0.00036201       0.00198566      -0.00049031
N        3.89798935       3.37725908       0.21214788      -0.00035096      -0.00178949       0.00012958
N        1.97932805       4.05846466       4.54509300      -0.00058981       0.00086723       0.00113823
N       -1.56310820       1.76797766       2.33374176       0.00063069      -0.00073842      -0.00110275
O        0.26142646       0.44184704       1.66655058       0.00094128       0.00013061       0.00002725
O        0.15479396       5.38459697       5.21228408      -0.00095568      -0.00015864       0.00002211
O        2.24585190       4.15349351       2.26223803      -0.00062863      -0.00139482      -0.00020183
O       -1.82963081       1.67295092       4.61659697       0.00053376       0.00133106       0.00021546
H        0.57844089       3.31711374       1.54670818       0.00045560      -0.00020183      -0.00006839
H       -0.16221492       2.50933198       5.33212382      -0.00100993       0.00002314       0.00031779
H        1.88946642       1.54569021       1.78887248      -0.00066309      -0.00013935       0.00030313
H       -1.47324527       4.28075417       5.08996154       0.00057207       0.00009744      -0.00020543
H        2.00294206       2.78338133       0.77022520      -0.00035096       0.00059830       0.00034273
H       -1.58671968       3.04305985       6.10860849       0.00017124      -0.00034684      -0.00020697
H        1.59207690       0.51558871       3.15188727      -0.00004757       0.00045689      -0.00029825
H       -1.17585691       5.31085600       3.72694713       0.00007945      -0.00052965       0.00036535
H       -2.32017600      -0.24291095       6.19525253       0.00015170       0.00026045       0.00045277
H        2.73639628       6.06935510       0.68358294      -0.00015478      -0.00028205      -0.00048954
H        0.90820907       1.93975135       4.36343475      -0.00012136       0.00035893      -0.00046511
H       -0.49198874       3.88669236       2.51540036       0.00011724      -0.00035507       0.00047283
H       -4.43948906       2.72114818       6.51805270       0.00006993      -0.00054842       0.00017612
H        4.85570818       3.10529471       0.36078069      -0.00001131       0.00052168      -0.00015812
H        2.16724937       5.04858117       4.40474265       0.00013010      -0.00121228      -0.00018743
H       -1.75102905       0.77786353       2.47409234      -0.00014372       0.00111920       0.00020132
H       -3.08022052       2.41166503       5.74120255      -0.00051833       0.00002160       0.00012804
H        3.49644283       3.41477916       1.13763036       0.00040058      -0.00000771       0.00012136
H        1.04893816       4.00633190       4.89249084       0.00024297       0.00002160       0.00001080
H       -0.63271767       1.82011195       1.98634419      -0.00027177      -0.00002777       0.00000051
