40
Lattice="4.862556496402 -0.0125156809753 0.00573060098869 -0.5877824718398 4.67144095477924 -0.00677149998663 -3.84489199241073 0.7962570764283 6.5914053559895" Properties=species:S:1:pos:R:3:forces:R:3 pbc="T T T"
C        1.44504999       3.31089791       1.12023202      -0.00004705       0.00018692      -0.00012058
C       -1.01516930       2.14427146       5.47013933       0.00015581       0.00036047      -0.00070011
C        1.11443516       1.06869119       2.41313641       0.00036433       0.00003754      -0.00047103
C       -0.68455547       4.38648442       4.17722884      -0.00009487      -0.00019746       0.00044506
C        1.83672376      -0.42019002       0.07272774       0.00002700       0.00032422       0.00036690
C       -1.40684150       5.87536634       6.51763046      -0.00001234      -0.00053608       0.00035044
C        0.80625059       2.26212135       3.27208104       0.00002931       0.00034658      -0.00024040
C       -0.37636748       3.19305103       3.31828251      -0.00016275      -0.00013241       0.00038489
C        0.59088479       0.33278408       0.27649861       0.00018615      -0.00049237      -0.00007045
C       -0.16100318       5.12239153       6.31386732      -0.00007482       0.00036150      -0.00009102
C        2.01573644       3.08312798       3.26555121       0.00016661       0.00042063       0.00087443
C       -1.58585534       2.37203456       3.32479766      -0.00007251       0.00093614       0.00089243
N       -3.24768275       2.36762684       6.31316868      -0.00064406       0.00045303       0.00005811
N        3.67756718       3.08754589       0.27719535       0.00020415      -0.00018461       0.00009127
N        1.84853441       3.82057391       4.38540571      -0.00129249      -0.00214841      -0.00030468
N       -1.41863747       1.63463643       2.20496516      -0.00037898      -0.00207899      -0.00045946
O        0.26609451       0.34953843       1.61515783      -0.00016686       0.00021289      -0.00009924
O        0.16378942       5.10563416       4.97520618       0.00001286      -0.00004217       0.00017843
O        2.15355142       3.88972893       2.14900189       0.00002443       0.00011236      -0.00029233
O       -1.72367076       1.56544470       4.44136321       0.00003882      -0.00001337       0.00021674
H        0.54081387       2.96512008       1.53157991      -0.00039981       0.00017021       0.00024400
H       -0.11093094       2.49005493       5.05878222       0.00018692      -0.00024425      -0.00012547
H        1.87837131       1.37367979       1.76018077       0.00011236      -0.00004114      -0.00007405
H       -1.44848860       4.08149487       4.83018461      -0.00012856      -0.00000771       0.00009899
H        1.96163565       2.46991345       0.76111611      -0.00039055      -0.00005914       0.00002982
H       -1.53175286       2.98526165       5.82924919       0.00043426       0.00000540      -0.00002417
H        1.54486567       0.38829686       3.10705800      -0.00000489      -0.00029182      -0.00029953
H       -1.11498341       5.06687700       3.48330769      -0.00004371       0.00035070       0.00024785
H       -2.10537720      -0.24515863       5.80413417       0.00023294      -0.00032987      -0.00012701
H        2.53525945       5.70033455       0.78623102      -0.00025274       0.00021983       0.00001723
H        0.87963156       1.80404652       4.23300241       0.00022574       0.00016224      -0.00002391
H       -0.44974890       3.65112807       2.35736218      -0.00018358      -0.00016789       0.00005888
H       -4.21299526       2.58412449       6.18925914       0.00044043       0.00021572       0.00017226
H        4.64287321       2.87104571       0.40110080      -0.00016481      -0.00024297      -0.00014218
H        1.99433886       4.81248237       4.27275954      -0.00011236       0.00142619      -0.00018795
H       -1.56445730       0.64267328       2.31760801       0.00032653       0.00068597      -0.00017586
H       -2.89723701       2.27731546       5.38198807      -0.00000411      -0.00016635      -0.00014064
H        3.32712128       3.17786560       1.20838066       0.00010079       0.00011750      -0.00009076
H        0.94639150       3.68327281       4.74924426       0.00092097       0.00000720      -0.00054276
H       -0.51652133       1.77190010       1.84112323       0.00044094       0.00026431       0.00007533
