40
Lattice="4.98661378015713 -0.01187305397656 -0.00765510298489 -0.60161011581251 4.83063126446502 -0.01543178696954 -3.9612260251811 0.80817255140478 6.73578173170452" Properties=species:S:1:pos:R:3:forces:R:3 pbc="T T T"
C        1.47459665       3.46671098       1.14423640      -0.00000643       0.00017586       0.00025248
C       -1.05081899       2.16021029       5.56845984      -0.00000154      -0.00003368      -0.00040803
C        1.12472236       1.13269885       2.43565695      -0.00006351      -0.00031933      -0.00012881
C       -0.70094495       4.49422424       4.27703807       0.00011030       0.00026508       0.00012393
C        1.87954756      -0.41172456       0.08939889      -0.00003188      -0.00012856      -0.00019412
C       -1.45576981       6.03864741       6.62329464       0.00003882       0.00011827       0.00034196
C        0.82090568       2.34293444       3.32910021      -0.00011467      -0.00012393       0.00030185
C       -0.39712756       3.28398752       3.38359453       0.00007996       0.00018743      -0.00027588
C        0.59917396       0.34812021       0.28342087      -0.00014784      -0.00010593       0.00040855
C       -0.17539605       5.27880401       6.42927384       0.00014013      -0.00006659      -0.00037358
C        2.06038176       3.17759806       3.32283413       0.00011699       0.00049134      -0.00039261
C       -1.63660428       2.44932016       3.38985570      -0.00008356      -0.00002982       0.00091866
N       -3.34764035       2.41332652       6.46874648       0.00023089       0.00079061      -0.00028591
N        3.77141550       3.21359494       0.24395165      -0.00004371      -0.00064355      -0.00000617
N        1.90424205       3.92839508       4.45790431      -0.00049699      -0.00104541       0.00057438
N       -1.48045996       1.69854010       2.25479299       0.00001980      -0.00033579      -0.00081658
O        0.26313287       0.38413007       1.64244068       0.00034838      -0.00010593       0.00002648
O        0.16064542       5.24279193       5.07025403      -0.00038747       0.00014630       0.00001800
O        2.19362942       4.01170542       2.20068239      -0.00024528      -0.00040752      -0.00013575
O       -1.76985194       1.61521730       4.51201260       0.00024477       0.00039852       0.00012650
H        0.55451318       3.12092158       1.54032056       0.00026688      -0.00029002      -0.00013524
H       -0.13073549       2.50600120       5.17237350      -0.00030210       0.00027974       0.00015915
H        1.88126526       1.44997152       1.76721698      -0.00015401       0.00008716       0.00009102
H       -1.45748753       4.17695112       4.94547790       0.00015735      -0.00009462      -0.00009102
H        1.97328009       2.61335856       0.76291289       0.00006273       0.00028231      -0.00026097
H       -1.54950197       3.01356461       5.94978228      -0.00004602      -0.00030956       0.00025660
H        1.57142200       0.44815938       3.12695445      -0.00031187       0.00003651      -0.00008613
H       -1.14764388       5.17876322       3.58574071       0.00029979      -0.00002005       0.00007071
H       -2.19453566      -0.23714021       5.96655150       0.00006762       0.00020337       0.00020826
H        2.61831342       5.86406349       0.74614360      -0.00007430      -0.00023474      -0.00024040
H        0.89103909       1.86380603       4.28900972       0.00004654       0.00048980       0.00000926
H       -0.46726114       3.76311663       2.42368512      -0.00003317      -0.00049288       0.00000643
H       -4.31107868       2.65106512       6.33130733      -0.00010696       0.00001234       0.00021109
H        4.73485622       2.97585495       0.38138527       0.00002777       0.00000206      -0.00020800
H        2.06486945       4.92103015       4.32953314       0.00022266       0.00019592       0.00016429
H       -1.64109205       0.70588545       2.38316293      -0.00013421       0.00054507      -0.00029748
H       -2.97096016       2.36066480       5.53986786      -0.00027948       0.00003034       0.00000566
H        3.39474016       3.26626014       1.17282677       0.00021263      -0.00001723       0.00017484
H        0.98513848       3.83015158       4.80711562       0.00064123       0.00017484      -0.00019129
H       -0.56136399       1.79677067       1.90557987      -0.00027022      -0.00010696       0.00007765
