40
Lattice="5.38039638037986 0.03933168792236 -0.07405371985383 -0.59234983883079 5.39609898134886 -0.07187143985814 -4.35896764139601 0.77295916647429 7.2282283287325" Properties=species:S:1:pos:R:3:forces:R:3 pbc="T T T"
C        1.59867395       4.00702409       1.17836806       0.00000900      -0.00188950       0.00203143
C       -1.16959487       2.20135618       5.90393529      -0.00001517       0.00192627      -0.00203631
C        1.17141003       1.37277592       2.48811145       0.00130072      -0.00207977      -0.00152004
C       -0.74233028       4.83560484       4.59419154      -0.00135677       0.00207128       0.00155166
C        2.02742745      -0.37798166       0.13035161      -0.00035661      -0.00140716      -0.00151618
C       -1.59834840       6.58636249       6.95195141       0.00035738       0.00140022       0.00153803
C        0.88078759       2.62642565       3.48492315       0.00029773      -0.00108989       0.00170104
C       -0.45170868       3.58195471       3.59738100      -0.00029413       0.00111869      -0.00176455
C        0.63837775       0.41224621       0.29527529      -0.00108372      -0.00036638       0.00177355
C       -0.20929872       5.79613447       6.78702821       0.00109143       0.00038181      -0.00179386
C        2.20804838       3.51549604       3.47473581       0.00043503       0.00136423      -0.00309844
C       -1.77896942       2.69288459       3.60756710      -0.00043529      -0.00134752       0.00313366
N       -3.66703112       2.46879948       6.93746792       0.00041858       0.00226643      -0.00166787
N        4.09611101       3.73958156       0.14483427      -0.00051319      -0.00227311       0.00177946
N        2.08612398       4.29306723       4.64713623      -0.00085026       0.00524274       0.00327301
N       -1.65704511       1.91531401       2.43516729       0.00085078      -0.00528645      -0.00329075
O        0.27527205       0.55217977       1.69622321       0.00245180       0.00042629      -0.00024837
O        0.15380686       5.65620064       5.38608013      -0.00243843      -0.00041061       0.00024323
O        2.32660011       4.42493181       2.33507524      -0.00162185      -0.00281844      -0.00095825
O       -1.89752113       1.78344913       4.74722823       0.00161697       0.00280764       0.00094951
H        0.61960003       3.70535418       1.52037525       0.00258936       0.00085926      -0.00085104
H       -0.19052102       2.50302655       5.56192799      -0.00259167      -0.00086132       0.00085335
H        1.90586760       1.73402375       1.78915818      -0.00182548      -0.00105724       0.00196509
H       -1.47678905       4.47435689       5.29314542       0.00185248       0.00107009      -0.00199286
H        2.05675388       3.12112671       0.75704025      -0.00136937       0.00233199       0.00114723
H       -1.62767499       3.08725431       6.32526304       0.00138017      -0.00235025      -0.00115340
H        1.64798410       0.67195220       3.17106508      -0.00075873       0.00169307      -0.00175169
H       -1.21890526       5.53642878       3.91123813       0.00076773      -0.00170078       0.00175658
H       -2.49570105      -0.27039998       6.51036730       0.00008150       0.00146630       0.00145190
H        2.92478007       6.47878088       0.57193607      -0.00008330      -0.00147144      -0.00146039
H        0.95296165       2.10918632       4.44260014      -0.00013370       0.00167353      -0.00194453
H       -0.52388262       4.09919496       2.63970254       0.00013910      -0.00170104       0.00199003
H       -4.61730705       2.79675255       6.81940403       0.00144239      -0.00120970       0.00018435
H        5.04638562       3.41162819       0.26289902      -0.00139894       0.00120071      -0.00018383
H        2.29192511       5.27749901       4.47967783      -0.00039132      -0.00322956       0.00017226
H       -1.86284620       0.93088152       2.60262549       0.00039389       0.00325425      -0.00017561
H       -3.26617619       2.42999676       6.00384531      -0.00091043      -0.00050908       0.00136937
H        3.69525485       3.77838402       1.07845895       0.00094797       0.00050291      -0.00145730
H        1.14886566       4.27888083       5.00552271       0.00137837      -0.00054559      -0.00137477
H       -0.71978686       1.92949973       2.07678067      -0.00137374       0.00054790       0.00137477
