40
Lattice="5.03543255806077 -0.0085092849832 -0.01518031597004 -0.60398349280782 4.88554400335663 -0.01871624996306 -4.00966716908548 0.80889681140335 6.79626908158512" Properties=species:S:1:pos:R:3:forces:R:3 pbc="T T T"
C        1.48839713       3.52047836       1.15180145      -0.00012521      -0.00015529       0.00061964
C       -1.06660890       2.16544775       5.61056622      -0.00050265      -0.00010670      -0.00013987
C        1.12873785       1.15576907       2.44531885      -0.00023423      -0.00049057      -0.00014578
C       -0.70695453       4.53015477       4.31705330       0.00011339       0.00044043       0.00019026
C        1.89709958      -0.40786859       0.09413273       0.00005296      -0.00009744      -0.00054944
C       -1.47531754       6.09378989       6.66824297      -0.00004782       0.00030519       0.00024605
C        0.82694193       2.37125998       3.35200856      -0.00024091      -0.00016944       0.00034684
C       -0.40516020       3.31466332       3.41036403       0.00027074       0.00016584      -0.00034478
C        0.60307507       0.35478330       0.28454656      -0.00012804      -0.00048388       0.00063429
C       -0.18129297       5.33114505       6.47782407       0.00011981      -0.00001646      -0.00042372
C        2.07804304       3.21147090       3.34456774       0.00010233       0.00005502      -0.00098705
C       -1.65626054       2.47445252       3.41780509      -0.00015015      -0.00007328       0.00095054
N       -3.38785638       2.42550264       6.52770686      -0.00008845       0.00145833      -0.00030570
N        3.80963771       3.26041626       0.23467140       0.00013653      -0.00101584      -0.00025402
N        1.92697655       3.96756681       4.48400885       0.00022574       0.00008562       0.00059958
N       -1.50519598       1.71835581       2.27836430      -0.00005348      -0.00001388      -0.00066052
O        0.26287491       0.40005988       1.65033366       0.00048157       0.00002417       0.00004422
O        0.15890696       5.28586296       5.11203863      -0.00045509       0.00000231       0.00000386
O        2.20987296       4.05325909       2.21890903      -0.00026508      -0.00063558      -0.00004165
O       -1.78809187       1.63266358       4.54346306       0.00033733       0.00069471       0.00008973
H        0.56206284       3.17745646       1.54303063       0.00058750      -0.00008587      -0.00027099
H       -0.14028522       2.50846544       5.21934343      -0.00018409       0.00022780       0.00007842
H        1.88423431       1.47747529       1.77382213      -0.00031856       0.00002674       0.00005759
H       -1.46245287       4.20844778       4.98855097       0.00037307      -0.00000077      -0.00010773
H        1.98199890       2.66268708       0.76448129      -0.00007276       0.00005991      -0.00002880
H       -1.56021733       3.02323739       5.99789206       0.00015298      -0.00016069      -0.00003882
H        1.57807316       0.46774189       3.13520264      -0.00011004       0.00033553      -0.00013627
H       -1.15629094       5.21818144       3.62717016       0.00011159      -0.00032730       0.00012290
H       -2.23130941      -0.23737968       6.03282846       0.00016249      -0.00000540       0.00043426
H        2.65309137       5.92330303       0.72954358      -0.00015889       0.00003060      -0.00038412
H        0.89628611       1.88585789       4.31177903       0.00000489       0.00036587      -0.00020055
H       -0.47450387       3.80006535       2.45059372      -0.00000540      -0.00035918       0.00018743
H       -4.34974434       2.67304321       6.38565257       0.00006351      -0.00042757       0.00019746
H        4.77152410       3.01287859       0.37671752       0.00007071       0.00040263      -0.00013293
H        2.09602807       4.95970582       4.35188819       0.00000077      -0.00053530      -0.00006556
H       -1.67424568       0.72621772       2.41048422      -0.00000720       0.00048851       0.00008253
H       -3.00238343       2.37954950       5.60014949      -0.00023886       0.00004782      -0.00028873
H        3.42416738       3.30637526       1.16222136       0.00015401      -0.00003857       0.00057773
H        1.00356409       3.88452957       4.83109181      -0.00016558       0.00014115       0.00011596
H       -0.58178079       1.80139408       1.93128016       0.00003111      -0.00015838      -0.00007173
