40
Lattice="5.30570813052728 0.01968424796115 -0.06073407288012 -0.60526903080528 5.25509124362719 -0.05320073789499 -4.2834365625451 0.79267206343538 7.14217994290235" Properties=species:S:1:pos:R:3:forces:R:3 pbc="T T T"
C        1.56840141       3.87628531       1.18474248       0.00017149      -0.00105467       0.00159254
C       -1.15139766       2.19115364       5.84350206      -0.00026945       0.00103821      -0.00153109
C        1.15401944       1.31143435       2.48742817       0.00062298      -0.00163599      -0.00103024
C       -0.73701696       4.75600369       4.54081809      -0.00060447       0.00170001       0.00093742
C        1.99821076      -0.38619719       0.12492376      -0.00014552      -0.00083535      -0.00108835
C       -1.58120817       6.45363587       6.90332195       0.00015144       0.00084049       0.00105004
C        0.86286534       2.55533473       3.46651028       0.00016969      -0.00063378       0.00103770
C       -0.44586271       3.51210428       3.56173444      -0.00016918       0.00061372      -0.00099245
C        0.62810633       0.39750874       0.29353822      -0.00079370      -0.00068623       0.00159126
C       -0.21110372       5.66992998       6.73470690       0.00080013       0.00068751      -0.00158149
C        2.17554896       3.43153557       3.45745256       0.00035276       0.00084178      -0.00246029
C       -1.75854640       2.63590336       3.57079312      -0.00034170      -0.00086003       0.00241889
N       -3.60853497       2.47141157       6.85881960       0.00031342       0.00216281      -0.00126807
N        4.02553801       3.59602716       0.16942537      -0.00034967      -0.00215716       0.00129326
N        2.04974200       4.20460557       4.62458582      -0.00062966       0.00411556       0.00249654
N       -1.63273814       1.86283341       2.40365873       0.00049622      -0.00414462      -0.00241889
O        0.26490944       0.51133488       1.68822028       0.00190030       0.00007688       0.00008716
O        0.15209326       5.55610381       5.34002490      -0.00190287      -0.00007970      -0.00008202
O        2.29488900       4.32654245       2.32025123      -0.00114286      -0.00209571      -0.00068417
O       -1.87788653       1.74089618       4.70799406       0.00115443       0.00210573       0.00068006
H        0.60196147       3.55850408       1.53755747       0.00162777       0.00047308      -0.00057078
H       -0.18495953       2.50893435       5.49068800      -0.00156580      -0.00045534       0.00054430
H        1.89749437       1.66280587       1.79779201      -0.00124596      -0.00053170       0.00102973
H       -1.48049147       4.40463315       5.23045282       0.00121510       0.00051268      -0.00099347
H        2.03636177       2.99611194       0.77225694      -0.00095851       0.00142156       0.00090194
H       -1.61935920       3.07132708       6.25598838       0.00097496      -0.00144393      -0.00091454
H        1.62125423       0.60877075       3.16984068      -0.00042577       0.00099322      -0.00112794
H       -1.20425177       5.45866845       3.85840411       0.00044506      -0.00102973       0.00116342
H       -2.44110900      -0.25851197       6.42028082      -0.00007636       0.00089809       0.00095979
H        2.85811166       6.32595061       0.60796426       0.00007893      -0.00088934      -0.00094719
H        0.93140830       2.04145390       4.42420619      -0.00008382       0.00112486      -0.00122539
H       -0.51440563       4.02598455       2.60403932       0.00008073      -0.00110686       0.00120096
H       -4.56145933       2.77933088       6.72250855       0.00070345      -0.00069343       0.00019797
H        4.97846177       3.28810768       0.30573632      -0.00068057       0.00068931      -0.00019412
H        2.25025448       5.19175063       4.46822545      -0.00032190      -0.00247649       0.00021289
H       -1.83325202       0.87568778       2.56001992       0.00033296       0.00251274      -0.00022446
H       -3.20167875       2.43599492       5.93002177      -0.00059418      -0.00042218       0.00073611
H        3.61868142       3.63144384       1.09822381       0.00060781       0.00041960      -0.00076310
H        1.11432373       4.17731872       4.97994136       0.00080296      -0.00050702      -0.00094745
H       -0.69732204       1.89011990       2.04830427      -0.00070088       0.00051191       0.00091326
