40
Lattice="4.88973932534835 -0.01370569197295 0.00366584399276 -0.59211540583125 4.709558565704 -0.00877930198267 -3.86940409936234 0.80044751842003 6.62176030992958" Properties=species:S:1:pos:R:3:forces:R:3 pbc="T T T"
C        1.45050456       3.34841942       1.12643544      -0.00043503      -0.00015427       0.00058287
C       -1.02227749       2.14787853       5.49021031       0.00028462      -0.00002288      -0.00024914
C        1.11657221       1.08364411       2.41766156      -0.00008176       0.00011339      -0.00032113
C       -0.68834998       4.41265095       4.19898045       0.00001131      -0.00008870       0.00030776
C        1.84579260      -0.41852387       0.07725521       0.00025197       0.00043349      -0.00028899
C       -1.41757456       5.91481467       6.53939439      -0.00025994      -0.00030930       0.00002828
C        0.80925772       2.28124283       3.28433933       0.00022189       0.00030930      -0.00015529
C       -0.38103562       3.21505313       3.33230426      -0.00018923      -0.00034119       0.00015349
C        0.59242265       0.33597817       0.27866924      -0.00014758      -0.00043812       0.00005811
C       -0.16420575       5.16031644       6.33797515       0.00008973       0.00018872       0.00013267
C        2.02541524       3.10520439       3.27851709      -0.00007122      -0.00064509      -0.00060961
C       -1.59719243       2.39109456       3.33813786       0.00008022       0.00031213       0.00008125
N       -3.26915729       2.37995188       6.34820957      -0.00030519       0.00021854      -0.00010953
N        3.69739051       3.11633366       0.26843182       0.00070937      -0.00007790      -0.00036844
N        1.86041785       3.84545927       4.40229048      -0.00069034       0.00057310       0.00086800
N       -1.43220105       1.65083247       2.21435415       0.00073199       0.00024451      -0.00048620
O        0.26484472       0.35643379       1.62213711       0.00016147       0.00008485       0.00024477
O        0.16337082       5.13986422       4.99450724      -0.00010002      -0.00013833      -0.00025068
O        2.16219033       3.91915561       2.16128280      -0.00008176       0.00007945      -0.00020286
O       -1.73396036       1.57713779       4.45536360       0.00005862      -0.00009899       0.00023037
H        0.54271603       3.00165830       1.53382974       0.00034324       0.00011287      -0.00007019
H       -0.11448603       2.49463507       5.08283148      -0.00022137      -0.00006505      -0.00000489
H        1.87810019       1.39156527       1.76004617      -0.00002597       0.00000437      -0.00001620
H       -1.44988342       4.10472929       4.85659082       0.00004602       0.00000746       0.00001825
H        1.96217085       2.50448651       0.76134599       0.00017355      -0.00010670      -0.00011159
H       -1.53396143       2.99180363       5.85529278      -0.00016147       0.00009744       0.00010182
H        1.55209871       0.40289434       3.11100994      -0.00000051      -0.00007533       0.00019283
H       -1.12387642       5.09339928       3.50562968       0.00001183       0.00005914      -0.00017638
H       -2.12446220      -0.24229661       5.83932658      -0.00003317      -0.00003497      -0.00012213
H        2.55268309       5.73858347       0.77732209       0.00003702       0.00006891       0.00015915
H        0.88183334       1.81772550       4.24490749       0.00006325      -0.00007482       0.00012521
H       -0.45362109       3.67856725       2.37173514      -0.00006993       0.00008176      -0.00013627
H       -4.23433207       2.60073549       6.22109044       0.00000617      -0.00013884       0.00011596
H        4.66257365       2.89560387       0.39560070      -0.00022060       0.00013395      -0.00014810
H        2.00866287       4.83782411       4.28527206      -0.00018718      -0.00020749      -0.00010336
H       -1.58045412       0.65847890       2.33137431       0.00016584      -0.00018486       0.00016301
H       -2.91255064       2.30083211       5.41723858      -0.00006351       0.00003214      -0.00020954
H        3.34074069       3.19539578       1.19937988      -0.00003728       0.00006042       0.00056770
H        0.95372374       3.71683625       4.76174265       0.00037281       0.00005296      -0.00014835
H       -0.52550065       1.77944984       1.85491358      -0.00043837      -0.00006711       0.00015864
