40
Lattice="5.60676469602291 1.862705983e-05 -0.46619830014926 -9.97172991e-06 4.24561786208274 -1.987763981e-05 -3.83945369541008 -3.057338971e-05 7.86959533378854" Properties=species:S:1:pos:R:3:forces:R:3 pbc="T T T"
C        1.87233004       2.84883930       0.73260909      -0.00008382       0.00022034      -0.00066823
C       -0.10502916       1.39676667       6.67076810       0.00008382      -0.00022034       0.00066823
C        1.81469634       0.72603496       2.73598795       0.00044043      -0.00158663      -0.00200957
C       -0.04739546       3.51957095       4.66738924      -0.00044043       0.00158663       0.00200957
C        1.87911373      -0.56247350      -0.27669072      -0.00029953       0.00006016       0.00118014
C       -0.11181261       4.80807941       7.68006775       0.00029953      -0.00006016      -0.00118014
C        1.80792745       1.56032321       3.74526331      -0.00020415       0.00112126       0.00217618
C       -0.04062651       2.68528269       3.65811410       0.00020415      -0.00112126      -0.00217618
C        1.08372834       0.58482471      -0.19399082       0.00007893       0.00026482      -0.00114697
C        0.68357283       3.66078120       7.59736808      -0.00007893      -0.00026482       0.00114697
C        2.60329673       2.70763237       3.66259294       0.00053170      -0.00058750      -0.00182420
C       -0.83599551       1.53797353       3.74078422      -0.00053170       0.00058750       0.00182420
N       -2.92621261       1.39176371       6.69536303       0.00045483      -0.00088626       0.00032062
N        4.69351388       2.85384220       0.70801402      -0.00045483       0.00088626      -0.00032062
N        2.77378043       3.51458172       4.64280164      -0.00004345       0.00101636       0.00110403
N       -1.00647921       0.73102418       2.76057552       0.00004345      -0.00101636      -0.00110403
O        0.53027602       0.84830986       0.89845000      -0.00045123      -0.00001363       0.00022523
O        1.23702492       3.39729591       6.50492707       0.00045123       0.00001363      -0.00022523
O        3.15675581       2.97112358       2.57012299      -0.00014655      -0.00013113       0.00111894
O       -1.38945492       1.27448245       4.83325421       0.00014655       0.00013113      -0.00111894
H        1.28564975       3.02752390       1.58849293      -0.00008999       0.00005245       0.00034299
H        0.48165152       1.21808200       5.81488412       0.00008999      -0.00005245      -0.00034299
H        2.40138040       0.90471881       1.88008428      -0.00032139      -0.00009667       0.00019283
H       -0.63407919       3.34088709       5.52329288       0.00032139       0.00009667      -0.00019283
H        2.43169428       1.96231684       0.67153016       0.00009899      -0.00013087      -0.00036381
H       -0.66439309       2.28328906       6.73184706      -0.00009899       0.00013087       0.00036381
H        1.25533839      -0.16050236       2.79705978       0.00005605       0.00016429       0.00037178
H        0.51196282       4.40610827       4.60631738      -0.00005605      -0.00016429      -0.00037178
H       -1.60665561      -0.81482201       6.62316353       0.00049417      -0.00032679      -0.00018975
H        3.37395675       5.06042781       0.78021347      -0.00049417       0.00032679       0.00018975
H        1.45423551       1.30799843       4.71503708      -0.00009822      -0.00000977      -0.00090837
H        0.31306542       2.93760759       2.68834033       0.00009822       0.00000977       0.00090837
H       -3.52038809       2.20661913       6.90200148      -0.00024168       0.00029362      -0.00020415
H        5.28768908       2.03898677       0.50137581       0.00024168      -0.00029362       0.00020415
H        3.36795874       4.32945867       4.43616168       0.00005374      -0.00004345       0.00030570
H       -1.60065770      -0.08385277       2.96721550      -0.00005374       0.00004345      -0.00030570
H       -2.24590000       1.45408038       5.94713106      -0.00021134       0.00007662      -0.00006788
H        4.01320134       2.79152553       1.45624587       0.00021134      -0.00007662       0.00006788
H        2.09347366       3.57690381       5.39103845       0.00020492       0.00002468       0.00015787
H       -0.32617256       0.66870209       2.01233895      -0.00020492      -0.00002468      -0.00015787
