40
Lattice="6.09026155335804 1.581325485e-05 -0.25943558301607 -1.263743988e-05 4.56861121933248 -7.33892993e-06 -3.83079057404852 -3.42263997e-06 8.43082997919987" Properties=species:S:1:pos:R:3:forces:R:3 pbc="T T T"
C        2.04016250       3.21502106       0.82847230       0.00010104       0.00020055       0.00004988
C        0.21929568       1.35360261       7.34291480      -0.00010104      -0.00020055      -0.00004988
C        2.13469304       0.93071894       3.12750785      -0.00017226       0.00001954      -0.00017972
C        0.12476514       3.63790466       5.04387924       0.00017226      -0.00001954       0.00017972
C        1.91328185      -0.55953365      -0.22386821       0.00020106       0.00052451       0.00017484
C        0.34617658       5.12815726       8.39525515      -0.00020106      -0.00052451      -0.00017484
C        2.26158407       1.72477921       4.17984895      -0.00037230       0.00044917       0.00026688
C       -0.00212582       2.84384440       3.99153839       0.00037230      -0.00044917      -0.00026688
C        1.14862181       0.66308547      -0.11969972      -0.00002365       0.00002854      -0.00040032
C        1.11083668       3.90553813       8.29108691       0.00002365      -0.00002854       0.00040032
C        3.02623392       2.94739732       4.07568019       0.00032730       0.00026482      -0.00001851
C       -0.76677538       1.62122628       4.09570689      -0.00032730      -0.00026482       0.00001851
N       -2.85263234       1.43362421       7.26261941      -0.00020929       0.00024528       0.00060164
N        5.11209094       3.13499939       0.90876755       0.00020929      -0.00024528      -0.00060164
N        3.19670391       3.71794917       5.12417907      -0.00042603      -0.00008485       0.00008150
N       -0.93724537       0.85067444       3.04720802       0.00042603       0.00008485      -0.00008150
O        0.63086228       0.98697558       0.98252005      -0.00035121       0.00049468      -0.00020620
O        1.62859596       3.58164789       7.18886693       0.00035121      -0.00049468       0.00020620
O        3.54399251       3.27128810       2.97345479       0.00023089       0.00039106       0.00034530
O       -1.28453433       1.29733564       5.19793231      -0.00023089      -0.00039106      -0.00034530
H        1.57981889       3.46124307       1.76515808       0.00000000      -0.00020415      -0.00007456
H        0.67963971       1.10738053       6.40622888      -0.00000000       0.00020415       0.00007456
H        2.59503464       1.17693842       2.19082163       0.00002288      -0.00019232       0.00002520
H       -0.33557610       3.39168519       5.98056546      -0.00002288       0.00019232      -0.00002520
H        2.63544296       2.32548702       0.78736624      -0.00021469      -0.00024528       0.00003368
H       -0.37598444       2.24313659       7.38402090       0.00021469       0.00024528      -0.00003368
H        1.53941612       0.04118058       3.16861581       0.00025145      -0.00018666      -0.00002571
H        0.72004242       4.52744303       5.00277127      -0.00025145       0.00018666       0.00002571
H       -1.50826135      -0.80260218       7.23793782      -0.00002417       0.00016892      -0.00022549
H        3.76771980       5.37122567       0.93344908       0.00002417      -0.00016892       0.00022549
H        1.85233516       1.48171504       5.14887939       0.00010053       0.00020852       0.00003265
H        0.40712308       3.08690869       3.02250795      -0.00010053      -0.00020852      -0.00003265
H       -3.45036887       2.26037013       7.40772927       0.00001363      -0.00014681       0.00004705
H        5.70982717       2.30825347       0.76365794      -0.00001363       0.00014681      -0.00004705
H        3.79442724       4.54469246       4.97907081       0.00020312       0.00012393      -0.00015221
H       -1.53496889       0.02393115       3.19231628      -0.00020312      -0.00012393       0.00015221
H       -2.23372472       1.40525072       6.44894961       0.00019592       0.00017509      -0.00007353
H        4.49318337       3.16337288       1.72243722      -0.00019592      -0.00017509       0.00007353
H        2.57778781       3.68957274       5.93785781       0.00010876       0.00021777      -0.00028282
H       -0.31832939       0.87905086       2.23352953      -0.00010876      -0.00021777       0.00028282
