40
Lattice="5.80397739198533 1.694042234e-05 -0.35422448621794 -1.08356174e-05 4.38203420429319 -8.3920499e-07 -3.79382754334387 5.60292745e-06 8.14787398141355" Properties=species:S:1:pos:R:3:forces:R:3 pbc="T T T"
C        1.95011257       2.99872529       0.78485675      -0.00044840       0.00020029       0.00018126
C        0.06002630       1.38333150       7.00879194       0.00044840      -0.00020029      -0.00018126
C        1.95694723       0.80772013       2.93485235      -0.00018692      -0.00056924       0.00011647
C        0.05319164       3.57433659       4.85879634       0.00018692       0.00056924      -0.00011647
C        1.88151094      -0.57890451      -0.25489071       0.00011699       0.00010182      -0.00006736
C        0.12862818       4.96096124       8.04853923      -0.00011699      -0.00010182       0.00006736
C        2.02554773       1.61211818       3.97460395       0.00014450       0.00042577      -0.00011056
C       -0.01540879       2.76993854       3.81904498      -0.00014450      -0.00042577       0.00011056
C        1.11022259       0.61203237      -0.16368162      -0.00005528      -0.00032602       0.00082352
C        0.89991658       3.77002436       7.95733040       0.00005528       0.00032602      -0.00082352
C        2.79683480       2.80305903       3.88338075      -0.00022857       0.00026225       0.00096519
C       -0.78669558       1.57899769       3.91026792       0.00022857      -0.00026225      -0.00096519
N       -2.86327678       1.39472035       6.96715785      -0.00016635       0.00042166      -0.00073765
N        4.87341605       2.98733637       0.82649071       0.00016635      -0.00042166       0.00073765
N        2.97650131       3.58575833       4.90043587       0.00017535      -0.00061192      -0.00057644
N       -0.96636209       0.79629839       2.89321280      -0.00017535       0.00061192       0.00057644
O        0.58792956       0.91661496       0.93868851       0.00004731       0.00008742      -0.00046743
O        1.42220937       3.46544162       6.85496006      -0.00004731      -0.00008742       0.00046743
O        3.31912204       3.10764407       2.78102745       0.00028514       0.00019823      -0.00022600
O       -1.30898316       1.27441278       5.01262124      -0.00028514      -0.00019823       0.00022600
H        1.43561040       3.21918530       1.68799250       0.00015864      -0.00018075      -0.00007610
H        0.57452888       1.16287142       6.10565605      -0.00015864       0.00018075       0.00007610
H        2.47144084       1.02817126       2.03172130       0.00003857      -0.00007276      -0.00022934
H       -0.46130162       3.35388546       5.76192737      -0.00003857       0.00007276       0.00022934
H        2.53908365       2.11761325       0.74699459       0.00017689      -0.00025557      -0.00001723
H       -0.52894446       2.26444348       7.04665414      -0.00017689       0.00025557       0.00001723
H        1.36797203      -0.07340699       2.97271773       0.00014630       0.00022703      -0.00001234
H        0.64216719       4.45546371       4.82093094      -0.00014630      -0.00022703       0.00001234
H       -1.51463248      -0.82365898       6.92857305       0.00003651      -0.00009385       0.00008562
H        3.52477161       5.20571559       0.86507544      -0.00003651       0.00009385      -0.00008562
H        1.62786821       1.36736392       4.93901147      -0.00011261      -0.00015632       0.00006968
H        0.38227071       3.01469293       2.85463745       0.00011261       0.00015632      -0.00006968
H       -3.46421371       2.21193304       7.14472140      -0.00000206      -0.00021289      -0.00010722
H        5.47435270       2.17012368       0.64892740       0.00000206       0.00021289       0.00010722
H        3.57743292       4.40296528       4.72286390       0.00002237      -0.00013267       0.00012470
H       -1.56729388      -0.02090856       3.07078478      -0.00002237       0.00013267      -0.00012470
H       -2.22022268       1.41113874       6.17724328      -0.00006325      -0.00024811       0.00004705
H        4.23036201       2.97091798       1.61640515       0.00006325       0.00024811      -0.00004705
H        2.33344767       3.60216745       5.69034073      -0.00012496      -0.00020029       0.00016532
H       -0.32330857       0.77988928       2.10330818       0.00012496       0.00020029      -0.00016532
