40
Lattice="5.7255372551507 1.452976486e-05 -0.38696204573957 -1.251402738e-05 4.3339551218549 -2.20496998e-06 -3.79384005737125 4.47575996e-06 8.05904495574349" Properties=species:S:1:pos:R:3:forces:R:3 pbc="T T T"
C        1.92148003       2.94575075       0.76796103      -0.00008613       0.00002443       0.00156272
C        0.01020452       1.38822343       6.90411970       0.00008613      -0.00002443      -0.00156272
C        1.90713201       0.77877730       2.87458388      -0.00047463       0.00032524       0.00016764
C        0.02455254       3.55519681       4.79749684       0.00047463      -0.00032524      -0.00016764
C        1.87494048      -0.57717981      -0.26445565      -0.00053633       0.00047720      -0.00058467
C        0.05674431       4.91115393       7.93653622       0.00053633      -0.00047720       0.00058467
C        1.95367951       1.58981649       3.90701867       0.00002057      -0.00090374      -0.00023757
C       -0.02199491       2.74415762       3.76506229      -0.00002057       0.00090374       0.00023757
C        1.09963771       0.60190736      -0.17543135       0.00012161      -0.00021212      -0.00037127
C        0.83204713       3.73206675       7.84751216      -0.00012161       0.00021212       0.00037127
C        2.72896412       2.76888916       3.81799258       0.00053890       0.00068006       0.00014758
C       -0.79727923       1.56508495       3.85408813      -0.00053890      -0.00068006      -0.00014758
N       -2.87283895       1.39128112       6.87828023       0.00059650      -0.00023011      -0.00008613
N        4.80452390       2.94269299       0.79380036      -0.00059650       0.00023011       0.00008613
N        2.90759915       3.55826897       4.82332516      -0.00041240      -0.00026097      -0.00035147
N       -0.97591426       0.77570514       2.84875554       0.00041240       0.00026097       0.00035147
O        0.57113507       0.89532357       0.92526154       0.00021700       0.00001697       0.00003188
O        1.36054954       3.43865041       6.74681907      -0.00021700      -0.00001697      -0.00003188
O        3.25747201       3.06231236       2.71729257      -0.00043323      -0.00007276       0.00043606
O       -1.32578746       1.27166188       4.95478816       0.00043323       0.00007276      -0.00043606
H        1.38992140       3.15793167       1.65923446       0.00034350      -0.00057464      -0.00043503
H        0.54176355       1.17604244       6.01284613      -0.00034350       0.00057464       0.00043503
H        2.43868022       0.99095628       1.98333022       0.00008536      -0.00041652      -0.00031187
H       -0.50699533       3.34301783       5.68875049      -0.00008536       0.00041652       0.00031187
H        2.50201748       2.06354549       0.72555098       0.00014758      -0.00045329      -0.00045946
H       -0.57033262       2.27042862       6.94652978      -0.00014758       0.00045329       0.00045946
H        1.32659235      -0.10343465       2.91700836       0.00001723      -0.00019540       0.00043966
H        0.60509254       4.43740876       4.75507234      -0.00001723       0.00019540      -0.00043966
H       -1.53268773      -0.82304130       6.82909663       0.00018820      -0.00011776       0.00029259
H        3.46437253       5.15701530       0.84298390      -0.00018820       0.00011776      -0.00029259
H        1.56746222       1.34394027       4.87251098      -0.00010901      -0.00008433      -0.00042475
H        0.36422238       2.99003397       2.79956997       0.00010901       0.00008433       0.00042475
H       -3.47228221       2.20707220       7.06582010      -0.00041755       0.00009307      -0.00059367
H        5.40396687       2.12690191       0.60626073       0.00041755      -0.00009307       0.00059367
H        3.50704170       4.37406552       4.63578202       0.00033733      -0.00001697       0.00059572
H       -1.57535699      -0.04009141       3.03629870      -0.00033733       0.00001697      -0.00059572
H       -2.21954073       1.42164367       6.09939044      -0.00018178      -0.00050496       0.00003780
H        4.15122574       2.91233044       1.57269003       0.00018178       0.00050496      -0.00003780
H        2.25430494       3.58863176       5.60221082       0.00005914      -0.00050599       0.00011081
H       -0.32262017       0.74534236       2.06987013      -0.00005914       0.00050599      -0.00011081
