40
Lattice="5.55732686665481 -6.2528999e-07 -0.5248360129739 -2.09965798e-05 4.18365417418668 1.07122049e-05 -3.90011244422584 3.557570967e-05 7.72089991691032" Properties=species:S:1:pos:R:3:forces:R:3 pbc="T T T"
C        1.85120203       2.78233332       0.70735318      -0.00023268      -0.00081144       0.00143159
C       -0.19400874       1.40135585       6.48872146       0.00023268       0.00081144      -0.00143159
C        1.75604762       0.69050076       2.62826121       0.00064303       0.00169487       0.00036201
C       -0.09885433       3.49318835       4.56781342      -0.00064303      -0.00169487      -0.00036201
C        1.90080381      -0.54229361      -0.27939006      -0.00049982       0.00183577      -0.00091300
C       -0.24361029       4.72598273       7.47546454       0.00049982      -0.00183577       0.00091300
C        1.70646697       1.54956646       3.61501750      -0.00035250      -0.00088112      -0.00106444
C       -0.04927363       2.63412265       3.58105736       0.00035250       0.00088112       0.00106444
C        1.07758127       0.57246744      -0.19928305       0.00084358      -0.00257702       0.00165425
C        0.57961229       3.61122167       7.39535776      -0.00084358       0.00257702      -0.00165425
C        2.52965997       2.66429169       3.53489947       0.00114003       0.00076233      -0.00042218
C       -0.87246636       1.51939742       3.66117514      -0.00114003      -0.00076233       0.00042218
N       -2.98780208       1.39584497       6.56177482      -0.00065255       0.00254231      -0.00199955
N        4.64499575       2.78784414       0.63429968       0.00065255      -0.00254231       0.00199955
N        2.69495386       3.48768908       4.49475573      -0.00144805      -0.00102047       0.00092894
N       -1.03776024       0.69600003       2.70131888       0.00144805       0.00102047      -0.00092894
O        0.49924605       0.80679006       0.88526472      -0.00026611       0.00010850      -0.00020517
O        1.15794730       3.37689893       6.31080980       0.00026611      -0.00010850       0.00020517
O        3.10801055       2.89862932       2.45035386      -0.00031496      -0.00038027       0.00077699
O       -1.45081726       1.28505991       4.74572078       0.00031496       0.00038027      -0.00077699
H        1.20966464       2.92434734       1.52555714       0.00041729      -0.00048388       0.00010130
H        0.44752904       1.25934177       5.67051735      -0.00041729       0.00048388      -0.00010130
H        2.39758764       0.83252194       1.81006525      -0.00030442      -0.00045457      -0.00018306
H       -0.74039402       3.35116717       5.38600936       0.00030442       0.00045457       0.00018306
H        2.39124931       1.89074369       0.62522576      -0.00047257       0.00066386      -0.00015478
H       -0.73405572       2.29294542       6.57084890       0.00047257      -0.00066386       0.00015478
H        1.21601686      -0.20106810       2.71039121      -0.00006145      -0.00021546       0.00028694
H        0.44117676       4.38475722       4.48568340       0.00006145       0.00021546      -0.00028694
H       -1.68710856      -0.80653146       6.46406390       0.00045971      -0.00031265       0.00038567
H        3.34430210       4.99022047       0.73201054      -0.00045971       0.00031265      -0.00038567
H        1.39426512       1.28528884       4.59244826      -0.00057876      -0.00042732       0.00001774
H        0.26292821       2.89840039       2.60362659       0.00057876       0.00042732      -0.00001774
H       -3.58013153       2.21015211       6.77811725      -0.00016944      -0.00097856      -0.00007122
H        5.23732493       1.97353700       0.41795748       0.00016944       0.00097856       0.00007122
H        3.28725144       4.30196155       4.27841652       0.00093897       0.00008382      -0.00034941
H       -1.63005799      -0.11827245       2.91765811      -0.00093897      -0.00008382       0.00034941
H       -2.28654000       1.48363471       5.84050409      -0.00037332       0.00004474      -0.00000566
H        3.94373374       2.70005440       1.35557029       0.00037332      -0.00004474       0.00000566
H        1.99366882       3.57546005       5.21602775       0.00091840       0.00012701      -0.00051653
H       -0.33647532       0.60822906       1.98004709      -0.00091840      -0.00012701       0.00051653
