40
Lattice="5.53693039246787 4.60739996e-06 -0.55480618707639 -1.800999733e-05 4.13659238097638 1.71131998e-06 -3.93752816843126 1.587907485e-05 7.61263267396937" Properties=species:S:1:pos:R:3:forces:R:3 pbc="T T T"
C        1.84708438       2.73665853       0.68961267       0.00112177      -0.00202526       0.00071194
C       -0.24770029       1.39995438       6.36821554      -0.00112177       0.00202526      -0.00071194
C        1.72105206       0.66833995       2.56189774       0.00054173       0.00168639      -0.00005862
C       -0.12166797       3.46827289       4.49593047      -0.00054173      -0.00168639       0.00005862
C        1.92848433      -0.52039009      -0.28096430      -0.00046820       0.00147427      -0.00044069
C       -0.32910000       4.65700294       7.33879236       0.00046820      -0.00147427       0.00044069
C        1.63968654       1.54793548       3.53247935      -0.00058056      -0.00119196      -0.00076233
C       -0.04030241       2.58867737       3.52534908       0.00058056       0.00119196       0.00076233
C        1.07565102       0.56352586      -0.19735495      -0.00016095      -0.00007919       0.00019823
C        0.52373335       3.57308699       7.25518323       0.00016095       0.00007919      -0.00019823
C        2.49250045       2.63183026       3.44886289       0.00036998       0.00057593       0.00053273
C       -0.89311603       1.50478259       3.60896529      -0.00036998      -0.00057593      -0.00053273
N       -3.02872282       1.40127772       6.47263773       0.00082018      -0.00034144      -0.00026997
N        4.62810729       2.73533513       0.58519034      -0.00082018       0.00034144       0.00026997
N        2.65932690       3.46956797       4.39151637       0.00047257       0.00000463      -0.00099039
N       -1.05994248       0.66704487       2.66631182      -0.00047257      -0.00000463       0.00099039
O        0.48087481       0.77012722       0.88344166       0.00033527      -0.00064355       0.00001131
O        1.11850934       3.36648550       6.17438644      -0.00033527       0.00064355      -0.00001131
O        3.08727133       2.83842782       2.36807348       0.00017612      -0.00034016      -0.00050137
O       -1.48788724       1.29818515       4.68975474      -0.00017612       0.00034016       0.00050137
H        1.16777358       2.85390669       1.47821288      -0.00065126      -0.00039518       0.00068237
H        0.43161090       1.28270615       5.57961519       0.00065126       0.00039518      -0.00068237
H        2.40038184       0.78561427       1.77329314       0.00019797      -0.00054919      -0.00012753
H       -0.80099742       3.35099857       5.28453505      -0.00019797       0.00054919       0.00012753
H        2.37071112       1.84010987       0.59125613      -0.00076670       0.00163471       0.00015581
H       -0.77132673       2.29650298       6.46657211       0.00076670      -0.00163471      -0.00015581
H        1.19745704      -0.22816759       2.66025259      -0.00030056      -0.00018795       0.00009847
H        0.40192739       4.36478044       4.39757560       0.00030056       0.00018795      -0.00009847
H       -1.74745116      -0.79995745       6.34393773       0.00066360      -0.00057516       0.00077570
H        3.34683550       4.93657019       0.71389030      -0.00066360       0.00057516      -0.00077570
H        1.37808596       1.26833530       4.52020826      -0.00054430      -0.00043606      -0.00095671
H        0.22129817       2.86827766       2.53762017       0.00054430       0.00043606       0.00095671
H       -3.62381335       2.21400346       6.69122982      -0.00051319       0.00021623       0.00027948
H        5.22319755       1.92260939       0.36659849       0.00051319      -0.00021623      -0.00027948
H        3.25442617       4.28230471       4.17291432       0.00021057      -0.00016404      -0.00012650
H       -1.65504192      -0.14569187       2.88491389      -0.00021057       0.00016404       0.00012650
H       -2.31465460       1.50843401       5.77053390      -0.00106187      -0.00001337       0.00026714
H        3.91403915       2.62817883       1.28729406       0.00106187       0.00001337      -0.00026714
H        1.94527634       3.57673258       5.09360605       0.00044377       0.00001234       0.00023783
H       -0.34589204       0.55988026       1.96422236      -0.00044377      -0.00001234      -0.00023783
