40
Lattice="5.98457190386801 1.980359231e-05 -0.29194726475481 -9.56035491e-06 4.49798523282485 -6.29403744e-06 -3.81338453280365 -5.32319245e-06 8.33184494407969" Properties=species:S:1:pos:R:3:forces:R:3 pbc="T T T"
C        2.00878747       3.13164830       0.81516277      -0.00029439       0.00020877       0.00070885
C        0.16239019       1.36635148       7.22472866       0.00029439      -0.00020877      -0.00070885
C        2.06908366       0.88265856       3.05880897       0.00024863       0.00014244      -0.00069728
C        0.10209400       3.61534115       4.98108245      -0.00024863      -0.00014244       0.00069728
C        1.90148854      -0.57047612      -0.23473087      -0.00002880      -0.00006556      -0.00000668
C        0.26968937       5.06847583       8.27462213       0.00002880       0.00006556       0.00000668
C        2.17638737       1.67851898       4.10870929       0.00027254       0.00023628      -0.00024503
C       -0.00520965       2.81948073       3.93118238      -0.00027254      -0.00023628       0.00024503
C        1.13467118       0.64184284      -0.13685366      -0.00061192      -0.00007096      -0.00018666
C        1.03650679       3.85615686       8.17674518       0.00061192       0.00007096       0.00018666
C        2.94320634       2.89085059       4.01082316       0.00001723      -0.00070371       0.00062375
C       -0.77202832       1.60714911       4.02906825      -0.00001723       0.00070371      -0.00062375
N       -2.85447424       1.41509212       7.15632950       0.00059855      -0.00046126       0.00037152
N        5.02565231       3.08290758       0.88356179      -0.00059855       0.00046126      -0.00037152
N        3.11894946       3.66409505       5.04949258       0.00062324       0.00047925      -0.00125418
N       -0.94777145       0.83390465       2.99039883      -0.00062324      -0.00047925       0.00125418
O        0.61737546       0.96166235       0.96608237       0.00027022      -0.00063918      -0.00007456
O        1.55380225       3.53633723       7.07380893      -0.00027022       0.00063918       0.00007456
O        3.46049308       3.21066399       2.90788957      -0.00002494      -0.00042140      -0.00019797
O       -1.28931542       1.28733585       5.13200186       0.00002494       0.00042140       0.00019797
H        1.52694035       3.36862431       1.73966045      -0.00020800       0.00006659       0.00070037
H        0.64423773       1.12937539       6.30023084       0.00020800      -0.00006659      -0.00070037
H        2.55093014       1.11963578       2.13431019       0.00019772       0.00005939      -0.00068057
H       -0.37975212       3.37836392       5.90558122      -0.00019772      -0.00005939       0.00068057
H        2.60589523       2.24738592       0.77933006      -0.00055124       0.00019823       0.00008228
H       -0.43471724       2.25061379       7.26056141       0.00055124      -0.00019823      -0.00008228
H        1.47197927      -0.00160791       3.09464395       0.00058930       0.00024965      -0.00010310
H        0.69919874       4.49960761       4.94524747      -0.00058930      -0.00024965       0.00010310
H       -1.50156333      -0.81423977       7.13155116       0.00027331       0.00006736       0.00043066
H        3.67274125       5.31223937       0.90834008      -0.00027331      -0.00006736      -0.00043066
H        1.76605783       1.43476314       5.07426961      -0.00031727       0.00004628      -0.00031033
H        0.40511989       3.06323669       2.96562206       0.00031727      -0.00004628       0.00031033
H       -3.45428541       2.23789463       7.31338299      -0.00098268      -0.00028334       0.00075925
H        5.62546318       2.26010507       0.72650856       0.00098268       0.00028334      -0.00075925
H        3.71877119       4.48691461       4.89242672       0.00053042      -0.00086955      -0.00055819
H       -1.54759336       0.01108509       3.14746470      -0.00053042       0.00086955       0.00055819
H       -2.22808440       1.40325706       6.34937836      -0.00007353       0.00064946       0.00077519
H        4.39926253       3.09474265       1.69051281       0.00007353      -0.00064946      -0.00077519
H        2.49257502       3.65226705       5.85643122      -0.00043657       0.00057104      -0.00020209
H       -0.32139713       0.84573266       2.18346044       0.00043657      -0.00057104       0.00020209
