40
Lattice="7.78133668777815 3.059807221e-05 -0.33823065419738 9.21479991e-06 5.13576421808351 1.258807488e-05 -4.95425842008184 -9.40403241e-06 8.20087606247835" Properties=species:S:1:pos:R:3:forces:R:3 pbc="T T T"
C        2.35230458       4.06391553       0.81078531      -0.00005991       0.00007096      -0.00006376
C        0.47478268       1.07186998       7.05187273       0.00005991      -0.00007096       0.00006376
C        2.95192796       1.49606110       2.95146293      -0.00005168      -0.00013087      -0.00017381
C       -0.12484070       3.63972434       4.91119511       0.00005168       0.00013087       0.00017381
C        2.27540448      -0.10195158      -0.10178291      -0.00049211       0.00055664      -0.00009102
C        0.55168310       5.23773703       7.96444079       0.00049211      -0.00055664       0.00009102
C        3.02881166       2.46595102       3.86402790       0.00048774       0.00050394      -0.00007868
C       -0.20172431       2.66983441       3.99863038      -0.00048774      -0.00050394       0.00007868
C        1.30831832       1.00487152       0.02137647       0.00031985       0.00019000      -0.00064946
C        1.51876934       4.13091391       7.84128166      -0.00031985      -0.00019000       0.00064946
C        3.99591798       3.57277288       3.74085060      -0.00042500       0.00007199       0.00052990
C       -1.16883025       1.56301256       4.12180742       0.00042500      -0.00007199      -0.00052990
N       -3.70674219       1.85299936       7.19476542       0.00013215      -0.00091428       0.00039492
N        6.53382999       3.28278608       0.66789248      -0.00013215       0.00091428      -0.00039492
N        4.05678511       4.42088355       4.76835476      -0.00064458      -0.00069548      -0.00032602
N       -1.22969738       0.71490189       3.09430326       0.00064458       0.00069548       0.00032602
O        0.59046045       1.15032093       1.04611268       0.00002468      -0.00010310       0.00031702
O        2.23662688       3.98546435       6.81654524      -0.00002468       0.00010310      -0.00031702
O        4.71371910       3.71820013       2.71607356       0.00012727       0.00000437      -0.00006171
O       -1.88663184       1.41758546       5.14658448      -0.00012727      -0.00000437       0.00006171
H        1.68218833       4.05369104       1.67024694      -0.00005296      -0.00013704       0.00008587
H        1.14489946       1.08209440       6.19241096       0.00005296       0.00013704      -0.00008587
H        3.62199572       1.48579079       2.09196950       0.00037332       0.00013010      -0.00002674
H       -0.79490799       3.64999465       5.77068852      -0.00037332      -0.00013010       0.00002674
H        3.07395024       3.25558404       0.73602786       0.00009307      -0.00003780       0.00027562
H       -0.24686255       1.88020140       7.12663022      -0.00009307       0.00003780      -0.00027562
H        2.23029184       0.68772559       3.02619016      -0.00037564      -0.00012470      -0.00004037
H        0.59679589       4.44805985       4.83646786       0.00037564       0.00012470       0.00004037
H       -2.02849074      -0.08884757       7.22487275       0.00037358      -0.00012444      -0.00025891
H        4.85557834       5.22463288       0.63778510      -0.00037358       0.00012444       0.00025891
H        2.37838709       2.47902581       4.73821113       0.00001825       0.00012830       0.00026508
H        0.44870025       2.65675978       3.12444715      -0.00001825      -0.00012830      -0.00026508
H       -4.36157377       2.65169898       7.23608318       0.00007199       0.00036741      -0.00009230
H        7.18866119       2.48408646       0.62657498      -0.00007199      -0.00036741       0.00009230
H        4.71151014       5.21967460       4.72705192       0.00013447      -0.00003420      -0.00022266
H       -1.88442264      -0.08388916       3.13560611      -0.00013447       0.00003420       0.00022266
H       -3.03476292       1.79622257       6.42305779      -0.00019720      -0.00005734       0.00010027
H        5.86185079       3.33956286       1.43959999       0.00019720       0.00005734      -0.00010027
H        3.38470928       4.36413987       5.53997524       0.00024991      -0.00012701       0.00031599
H       -0.55762170       0.77164556       2.32268303      -0.00024991       0.00012701      -0.00031599
