40
Lattice="5.57488536347326 1.408547987e-05 -0.5014073266003 -1.142799739e-05 4.21023332660334 -3.20872497e-06 -3.87393073764796 1.30817249e-06 7.78512227567778" Properties=species:S:1:pos:R:3:forces:R:3 pbc="T T T"
C        1.85816441       2.81038715       0.71790558      -0.00067723       0.00001877       0.00081375
C       -0.15722135       1.39986162       6.56580619       0.00067723      -0.00001877      -0.00081375
C        1.77975227       0.70528460       2.67324643      -0.00000180      -0.00134829      -0.00105672
C       -0.07880920       3.50496411       4.61046534       0.00000180       0.00134829       0.00105672
C        1.88956135      -0.55188739      -0.27866778       0.00051473       0.00074202      -0.00045971
C       -0.18861804       4.76213610       7.56237939      -0.00051473      -0.00074202       0.00045971
C        1.74835726       1.55323484       3.66981565      -0.00074562       0.00076927       0.00125727
C       -0.04741415       2.65701387       3.61389634       0.00074562      -0.00076927      -0.00125727
C        1.07967407       0.57786278      -0.19817341      -0.00013190      -0.00070654       0.00005939
C        0.62126927       3.63238592       7.48188525       0.00013190       0.00070654      -0.00005939
C        2.55822921       2.68297680       3.58932343       0.00118811       0.00098910       0.00021083
C       -0.85728582       1.52727190       3.69438832      -0.00118811      -0.00098910      -0.00021083
N       -2.96096615       1.39390528       6.61808598      -0.00007456       0.00037872      -0.00070243
N        4.66190960       2.81634343       0.66562565       0.00007456      -0.00037872       0.00070243
N        2.72494857       3.49904567       4.55819206      -0.00064432      -0.00122179      -0.00022189
N       -1.02400517       0.71120304       2.72551968       0.00064432       0.00122179       0.00022189
O        0.51194250       0.82544985       0.88956757      -0.00046203       0.00107961       0.00003342
O        1.18900062       3.38479873       6.39414408       0.00046203      -0.00107961      -0.00003342
O        3.12597155       2.93057864       2.50157705      -0.00002314       0.00077930       0.00072942
O       -1.42502848       1.27967020       4.78213472       0.00002314      -0.00077930      -0.00072942
H        1.24030161       2.96857350       1.55297418       0.00036895      -0.00087495       0.00059778
H        0.46064184       1.24167520       5.73073744      -0.00036895       0.00087495      -0.00059778
H        2.39760720       0.86345990       1.83817966      -0.00018640      -0.00080604      -0.00084615
H       -0.69666381       3.34678880       5.44553208       0.00018640       0.00080604       0.00084615
H        2.40695282       1.92120944       0.64538630      -0.00030905      -0.00009667      -0.00028565
H       -0.70600945       2.28903927       6.63832550       0.00030905       0.00009667       0.00028565
H        1.23095917      -0.18391347       2.74576768       0.00072839       0.00060961       0.00024246
H        0.46998422       4.39416218       4.53794407      -0.00072839      -0.00060961      -0.00024246
H       -1.65161871      -0.81007814       6.53304239       0.00077262      -0.00040881      -0.00011981
H        3.35256203       5.02032675       0.75066919      -0.00077262       0.00040881       0.00011981
H        1.41560669       1.29504391       4.64323456      -0.00071965      -0.00038052      -0.00006788
H        0.28533643       2.91520492       2.64047743       0.00071965       0.00038052       0.00006788
H       -3.55341096       2.20864983       6.83104037      -0.00073302      -0.00064458       0.00031316
H        5.25435413       2.00159888       0.45267150       0.00073302       0.00064458      -0.00031316
H        3.31738096       4.31377884       4.34523134       0.00097702      -0.00029722      -0.00042886
H       -1.61643773      -0.10353014       2.93848042      -0.00097702       0.00029722       0.00042886
H       -2.26828122       1.47073373       5.88526635      -0.00012238      -0.00004577       0.00006505
H        3.96922473       2.73951498       1.39844516       0.00012238       0.00004577      -0.00006505
H        2.03225635       3.57586038       5.29100576       0.00017175       0.00002905      -0.00005476
H       -0.33131308       0.63438833       1.99270621      -0.00017175      -0.00002905       0.00005476
