40
Lattice="5.55248360073006 1.97459998e-06 -0.53182275654362 -1.898084232e-05 4.17470552566779 1.314754488e-05 -3.90843145040311 3.845533464e-05 7.69921437449043" Properties=species:S:1:pos:R:3:forces:R:3 pbc="T T T"
C        1.84960975       2.77319066       0.70389731      -0.00016532      -0.00164165       0.00175992
C       -0.20557671       1.40155534       6.46350747       0.00016532       0.00164165      -0.00175992
C        1.74864397       0.68582808       2.61387753      -0.00007508       0.00180646       0.00186302
C       -0.10461093       3.48891785       4.55352725       0.00007508      -0.00180646      -0.00186302
C        1.90526436      -0.53865777      -0.27957243      -0.00041240       0.00146013      -0.00168870
C       -0.26123107       4.71340371       7.44697705       0.00041240      -0.00146013       0.00168870
C        1.69300009       1.54873282       3.59738380       0.00002957      -0.00157069      -0.00224612
C       -0.04896700       2.62601311       3.57002120      -0.00002957       0.00157069       0.00224612
C        1.07704676       0.57064218      -0.19927403       0.00050702      -0.00110635       0.00101996
C        0.56698656       3.60410376       7.36667888      -0.00050702       0.00110635      -0.00101996
C        2.52120277       2.65800568       3.51705928       0.00019540       0.00083638       0.00077467
C       -0.87716940       1.51674025       3.65034547      -0.00019540      -0.00083638      -0.00077467
N       -2.99657695       1.39666221       6.54328048      -0.00040161       0.00130278      -0.00072145
N        4.64061038       2.77808373       0.62412417       0.00040161      -0.00130278       0.00072145
N        2.68640017       3.48402223       4.47373635      -0.00061578      -0.00082712      -0.00013755
N       -1.04236680       0.69072370       2.69366840       0.00061578       0.00082712       0.00013755
O        0.49528428       0.80011831       0.88434306      -0.00000463       0.00016121      -0.00012650
O        1.14874883       3.37462750       6.28306162       0.00000463      -0.00016121       0.00012650
O        3.10296720       2.88748259       2.43345595       0.00009899       0.00001466      -0.00033090
O       -1.45893415       1.28726347       4.73394883      -0.00009899      -0.00001466       0.00033090
H        1.20036466       2.90978766       1.51637196       0.00021957      -0.00000231      -0.00025531
H        0.44366877       1.26495827       5.65103268      -0.00021957       0.00000231       0.00025531
H        2.39788386       0.82243649       1.80142838       0.00035507       0.00011493      -0.00039029
H       -0.75385049       3.35230944       5.36597637      -0.00035507      -0.00011493       0.00039029
H        2.38657474       1.88074058       0.61836260      -0.00019489       0.00021777       0.00000257
H       -0.74254139       2.29400535       6.54904220       0.00019489      -0.00021777      -0.00000257
H        1.21168896      -0.20659661       2.69942705      -0.00029722      -0.00065640       0.00008587
H        0.43234442       4.38134255       4.46797770       0.00029722       0.00065640      -0.00008587
H       -1.69899433      -0.80540277       6.44059733       0.00007456      -0.00005014       0.00065409
H        3.34302762       4.98014860       0.72680726      -0.00007456       0.00005014      -0.00065409
H        1.38883017       1.28194476       4.57639729      -0.00032653      -0.00032859       0.00026380
H        0.25520291       2.89280129       2.59100770       0.00032653       0.00032859      -0.00026380
H       -3.58923020       2.21064711       6.76044974       0.00009642      -0.00011441      -0.00019360
H        5.23326336       1.96409882       0.40695514      -0.00009642       0.00011441       0.00019360
H        3.27903415       4.29798828       4.25657114       0.00029182       0.00044763      -0.00005168
H       -1.63500094      -0.12324235       2.91083363      -0.00029182      -0.00044763       0.00005168
H       -2.29269644       1.48818510       5.82577383      -0.00018872       0.00011519      -0.00019823
H        3.93672994       2.68656083       1.34163069       0.00018872      -0.00011519       0.00019823
H        1.98250703       3.57553863       5.19124412       0.00049777       0.00013755      -0.00018178
H       -0.33847378       0.59920730       1.97616086      -0.00049777      -0.00013755       0.00018178
