40
Lattice="5.69238274238797 1.726952234e-05 -0.40376002537513 -1.07862524e-05 4.31255482685734 -9.59326491e-06 -3.7983298945818 -1.08027074e-05 8.01664164703717" Properties=species:S:1:pos:R:3:forces:R:3 pbc="T T T"
C        1.90858431       2.92236039       0.75984732       0.00109760       0.00022831      -0.00144007
C       -0.01454239       1.39020095       6.85302474      -0.00109760      -0.00022831       0.00144007
C        1.88461558       0.76608928       2.84473221      -0.00020286      -0.00116805      -0.00242146
C        0.00942635       3.54647200       4.76813984       0.00020286       0.00116805       0.00242146
C        1.87340904      -0.57511563      -0.26834626      -0.00038695      -0.00034376       0.00143133
C        0.02063313       4.88767691       7.88121815       0.00038695       0.00034376      -0.00143133
C        1.91981330       1.58115924       3.87287858      -0.00030596       0.00051396       0.00241709
C       -0.02577132       2.73140203       3.73999371       0.00030596      -0.00051396      -0.00241709
C        1.09516135       0.59770188      -0.18053457       0.00004062      -0.00050625      -0.00014835
C        0.79888087       3.71485939       7.79340671      -0.00004062       0.00050625       0.00014835
C        2.69804183       2.75396985       3.78508203       0.00076953       0.00139405       0.00114543
C       -0.80399956       1.55859142       3.82779001      -0.00076953      -0.00139405      -0.00114543
N       -2.88053801       1.39065806       6.83646753       0.00128812      -0.00003240      -0.00162777
N        4.77458033       2.92190322       0.77640438      -0.00128812       0.00003240       0.00162777
N        2.87540467       3.54696065       4.78475125      -0.00027125      -0.00131743      -0.00171750
N       -0.98136240       0.76560063       2.82812078       0.00027125       0.00131743       0.00171750
O        0.56244528       0.88503423       0.91886480       0.00028771       0.00004885       0.00019309
O        1.33159671       3.42752691       6.69400714      -0.00028771      -0.00004885      -0.00019309
O        3.23076465       3.04132061       2.68568089      -0.00045483       0.00001748       0.00052013
O       -1.33672272       1.27124079       4.92719117       0.00045483      -0.00001748      -0.00052013
H        1.36709431       3.12923194       1.64448868      -0.00023500      -0.00040006       0.00083947
H        0.52694802       1.18332934       5.96838324       0.00023500       0.00040006      -0.00083947
H        2.42611954       0.97295974       1.96005377      -0.00051962      -0.00071425       0.00036175
H       -0.53207727       3.33960153       5.65281826       0.00051962       0.00071425      -0.00036175
H        2.48462805       2.03934135       0.71430905      -0.00036304       0.00020003      -0.00037332
H       -0.59058581       2.27321993       6.89856304       0.00036304      -0.00020003       0.00037332
H        1.30858695      -0.11693685       2.89024668       0.00026174       0.00010850       0.00048028
H        0.58545532       4.42949813       4.72262536      -0.00026174      -0.00010850      -0.00048028
H       -1.54495574      -0.82183101       6.78213010       0.00046100      -0.00033579      -0.00016301
H        3.43899792       5.13439218       0.83074177      -0.00046100       0.00033579       0.00016301
H        1.53983850       1.33445284       4.83907950       0.00001234       0.00002083      -0.00096031
H        0.35420348       2.97810856       2.77379279      -0.00001234      -0.00002083       0.00096031
H       -3.47891124       2.20605845       7.02860780      -0.00057053       0.00010182      -0.00033450
H        5.37295328       2.10650283       0.58426436       0.00057053      -0.00010182       0.00033450
H        3.47378505       4.36235989       4.59257877       0.00033167      -0.00014681       0.00054199
H       -1.57974296      -0.04979862       3.02029328      -0.00033167       0.00014681      -0.00054199
H       -2.22170963       1.42790784       6.06361647      -0.00072454      -0.00040289       0.00070063
H        4.11575202       2.88465344       1.54925532       0.00072454       0.00040289      -0.00070063
H        2.21659327       3.58419894       5.55756432      -0.00025968      -0.00031445       0.00050728
H       -0.32255112       0.72836234       2.05530795       0.00025968       0.00031445      -0.00050728
