40
Lattice="5.74322606734043 1.893970482e-05 -0.37853482325581 -1.01691899e-05 4.34524524280442 -1.729420484e-05 -3.79224250725618 -2.529956226e-05 8.08103945724049" Properties=species:S:1:pos:R:3:forces:R:3 pbc="T T T"
C        1.92825126       2.95831986       0.77198747       0.00011184       0.00018795      -0.00097728
C        0.02272199       1.38691907       6.93049989      -0.00011184      -0.00018795       0.00097728
C        1.91884185       0.78569823       2.88999453       0.00016121      -0.00081221      -0.00103847
C        0.03213140       3.55954064       4.81249283      -0.00016121       0.00081221       0.00103847
C        1.87602865      -0.57788621      -0.26253722       0.00002700      -0.00068391       0.00148970
C        0.07494484       4.92312509       7.96502441      -0.00002700       0.00068391      -0.00148970
C        1.97107393       1.59472287       3.92450706       0.00008048       0.00063892       0.00047128
C       -0.02010062       2.75051600       3.77798053      -0.00008048      -0.00063892      -0.00047128
C        1.10202678       0.60428162      -0.17288481       0.00013395       0.00071348      -0.00126190
C        0.84894677       3.74095725       7.87537225      -0.00013395      -0.00071348       0.00126190
C        2.74507090       2.77691361       3.83487421      -0.00015247      -0.00087983      -0.00152569
C       -0.79409731       1.56832525       3.86761313       0.00015247       0.00087983       0.00152569
N       -2.86928715       1.39194351       6.89996201      -0.00000566      -0.00159357       0.00118965
N        4.82026080       2.95329536       0.80252521       0.00000566       0.00159357      -0.00118965
N        2.92413700       3.56457520       4.84302963       0.00012341       0.00030828       0.00096288
N       -0.97316340       0.78066367       2.85945771      -0.00012341      -0.00030828      -0.00096288
O        0.57550750       0.90055635       0.92841400      -0.00014270       0.00032524       0.00069445
O        1.37546580       3.44468239       6.77407324       0.00014270      -0.00032524      -0.00069445
O        3.27158980       3.07318511       2.73354958      -0.00027099       0.00020312       0.00024297
O       -1.32061655       1.27205389       4.96893778       0.00027099      -0.00020312      -0.00024297
H        1.40153721       3.17317138       1.66640994      -0.00027716      -0.00051731       0.00076645
H        0.54943645       1.17206749       6.03607728       0.00027716       0.00051731      -0.00076645
H        2.44555995       1.00055259       1.99555452      -0.00005656      -0.00065743      -0.00022806
H       -0.49458636       3.34468627       5.70693282       0.00005656       0.00065743       0.00022806
H        2.51092059       2.07640899       0.73091096      -0.00003754      -0.00010464       0.00061244
H       -0.55994702       2.26882989       6.97157643       0.00003754       0.00010464      -0.00061244
H        1.33617996      -0.09621998       2.93106580       0.00006453      -0.00005682      -0.00061526
H        0.61479364       4.44145886       4.77142153      -0.00006453       0.00005682       0.00061526
H       -1.52696353      -0.82345064       6.85335326       0.00015761      -0.00041883      -0.00010207
H        3.47793704       5.16868940       0.84913390      -0.00015761       0.00041883       0.00010207
H        1.58182408       1.34918491       4.88967190      -0.00000463      -0.00031136      -0.00032807
H        0.36914923       2.99605408       2.81281569       0.00000463       0.00031136       0.00032807
H       -3.46926037       2.20799796       7.08499114      -0.00021597      -0.00057490       0.00057361
H        5.42023373       2.13724091       0.61749633       0.00021597       0.00057490      -0.00057361
H        3.52410854       4.38064882       4.65800767       0.00011416      -0.00078804      -0.00054610
H       -1.57313512      -0.03540995       3.04447968      -0.00011416       0.00078804       0.00054610
H       -2.21871541       1.41866804       6.11813742      -0.00002623       0.00000386      -0.00010464
H        4.16968912       2.92657083       1.58434968       0.00002623      -0.00000386       0.00010464
H        2.27356562       3.59130659       5.62486932       0.00028385      -0.00007199      -0.00017175
H       -0.32259214       0.75393228       2.07761826      -0.00028385       0.00007199       0.00017175
