40
Lattice="5.53461808652448 4.60739996e-06 -0.55918475557798 -1.889033982e-05 4.12615821620887 -5.79215995e-06 -3.94417261509418 3.19226997e-06 7.58962902846929" Properties=species:S:1:pos:R:3:forces:R:3 pbc="T T T"
C        1.84782267       2.72744144       0.68572472       0.00053865       0.00046023      -0.00062632
C       -0.25739622       1.39872461       6.34471378      -0.00053865      -0.00046023       0.00062632
C        1.71468880       0.66437504       2.54991332       0.00006016      -0.00106675      -0.00132952
C       -0.12426235       3.46179096       4.48052517      -0.00006016       0.00106675       0.00132952
C        1.93676823      -0.51401539      -0.28141118      -0.00064432      -0.00046151       0.00115854
C       -0.34634154       4.64018139       7.31184953       0.00064432       0.00046151      -0.00115854
C        1.62576159       1.54906234       3.51702235       0.00007533      -0.00008947       0.00127990
C       -0.03533509       2.57710366       3.51341636      -0.00007533       0.00008947      -0.00127990
C        1.07557355       0.56183760      -0.19619985       0.00106984      -0.00060421      -0.00048234
C        0.51485318       3.56432840       7.22663842      -0.00106984       0.00060421       0.00048234
C        2.48693016       2.62490721       3.43182802       0.00090786       0.00133209      -0.00035764
C       -0.89650338       1.50125878       3.59861046      -0.00090786      -0.00133209       0.00035764
N       -3.03658014       1.40321497       6.45500252      -0.00208465       0.00090863       0.00072197
N        4.62700697       2.72295102       0.57543584       0.00208465      -0.00090863      -0.00072197
N        2.65494816       3.46631926       4.37023271      -0.00159460      -0.00169436       0.00108192
N       -1.06452138       0.65984673       2.66020577       0.00159460       0.00169436      -0.00108192
O        0.47753999       0.76103252       0.88416354      -0.00033219       0.00081530       0.00047745
O        1.11288652       3.36513335       6.14627485       0.00033219      -0.00081530      -0.00047745
O        3.08498178       2.82412163       2.35145645      -0.00066129       0.00010876       0.00036433
O       -1.49455533       1.30204449       4.67898205       0.00066129      -0.00010876      -0.00036433
H        1.16072007       2.83977441       1.46785568      -0.00050059      -0.00017072       0.00038232
H        0.42970677       1.28639159       5.56258268       0.00050059       0.00017072      -0.00038232
H        2.40179874       0.77669683       1.76776512       0.00004371      -0.00020415       0.00013781
H       -0.81137196       3.34946916       5.26267335      -0.00004371       0.00020415      -0.00013781
H        2.36793627       1.82984959       0.58410740      -0.00040572      -0.00058133       0.00023886
H       -0.77750952       2.29631641       6.44633113       0.00040572       0.00058133      -0.00023886
H        1.19458793      -0.23323051       2.65151997       0.00046203      -0.00039621      -0.00020183
H        0.39583885       4.35939651       4.37891850      -0.00046203       0.00039621       0.00020183
H       -1.76032906      -0.79831160       6.31771851       0.00016764      -0.00033939      -0.00017021
H        3.35075576       4.92447749       0.71271981      -0.00016764       0.00033939       0.00017021
H        1.37868588       1.26476805       4.50754224      -0.00010542      -0.00017329      -0.00041498
H        0.21174061       2.86139807       2.52289647       0.00010542       0.00017329       0.00041498
H       -3.63314069       2.21536844       6.67327466       0.00076233      -0.00017355      -0.00016969
H        5.22356725       1.91079755       0.35716393      -0.00076233       0.00017355       0.00016969
H        3.25146084       4.27844020       4.15197981       0.00031907       0.00115391      -0.00042218
H       -1.66103423      -0.15227421       2.87845868      -0.00031907      -0.00115391       0.00042218
H       -2.32021274       1.51486052       5.75682932       0.00053916       0.00009539      -0.00042963
H        3.91063965       2.61130547       1.27360893      -0.00053916      -0.00009539       0.00042963
H        1.93853489       3.57794285       5.06843331       0.00100813       0.00003497      -0.00089449
H       -0.34810823       0.54822314       1.96200539      -0.00100813      -0.00003497       0.00089449
