40
Lattice="5.53681541315645 1.423357487e-05 -0.57001979705174 -1.147736239e-05 4.05849542961855 -4.71435746e-06 -3.973357671789 -1.89232498e-06 7.46354855708478" Properties=species:S:1:pos:R:3:forces:R:3 pbc="T T T"
C        1.86802034       2.68146628       0.65672462       0.00007508      -0.00000154       0.00007610
C       -0.30457420       1.37704152       6.23679944      -0.00007508       0.00000154      -0.00007610
C        1.68210725       0.65221943       2.50502481      -0.00014038       0.00007328       0.00005836
C       -0.11866111       3.40628831       4.38849926       0.00014038      -0.00007328      -0.00005836
C        2.02697465      -0.44486665      -0.28906137      -0.00017484      -0.00015812       0.00001440
C       -0.46352827       4.50337440       7.18258529       0.00017484       0.00015812      -0.00001440
C        1.52315887       1.58438370       3.45081570       0.00018615      -0.00019335      -0.00015375
C        0.04028732       2.47412404       3.44270857      -0.00018615       0.00019335       0.00015375
C        1.07999207       0.55775694      -0.18708292      -0.00014810       0.00014912      -0.00017458
C        0.48345435       3.50075081       7.08060705       0.00014810      -0.00014912       0.00017458
C        2.47013593       2.58701288       3.34883427       0.00013010       0.00004731       0.00007585
C       -0.90668945       1.47149486       3.54468978      -0.00013010      -0.00004731      -0.00007585
N       -3.07040484       1.43041926       6.36992579       0.00020569      -0.00011956       0.00021880
N        4.63385137       2.62808848       0.52359815      -0.00020569       0.00011956      -0.00021880
N        2.64717033       3.45967888       4.25537028      -0.00023963      -0.00000591      -0.00006042
N       -1.08372385       0.59882887       2.63815375       0.00023963       0.00000591       0.00006042
O        0.46022711       0.69363052       0.89133438       0.00008408      -0.00006016      -0.00022703
O        1.10321909       3.36487710       6.00218958      -0.00008408       0.00006016       0.00022703
O        3.08989976       2.72288698       2.27041606      -0.00009796      -0.00005939       0.00023191
O       -1.52645362       1.33562088       4.62310801       0.00009796       0.00005939      -0.00023191
H        1.12464342       2.77046326       1.38845274       0.00015632      -0.00030570      -0.00001568
H        0.43880312       1.28804449       5.50507119      -0.00015632       0.00030570       0.00001568
H        2.42548236       0.74121974       1.77329704      -0.00010747      -0.00029851      -0.00002854
H       -0.86203588       3.31728801       5.12022699       0.00010747       0.00029851       0.00002854
H        2.36989138       1.77641004       0.55136585       0.00013293      -0.00005039       0.00003214
H       -0.80644494       2.28209770       6.34215824      -0.00013293       0.00005039      -0.00003214
H        1.18024108      -0.25283892       2.61038613      -0.00013035      -0.00005142      -0.00003368
H        0.38320539       4.31134667       4.28313791       0.00013035       0.00005142       0.00003368
H       -1.84844158      -0.77737736       6.16182175      -0.00010182       0.00021777      -0.00009127
H        3.41188797       4.83588500       0.73170213       0.00010182      -0.00021777       0.00009127
H        1.42521825       1.25187759       4.46348051       0.00010182       0.00020055       0.00012933
H        0.13822793       2.80663028       2.43004377      -0.00010182      -0.00020055      -0.00012933
H       -3.68346079       2.23705397       6.58003419      -0.00032473      -0.00026637      -0.00028231
H        5.24690704       1.82145377       0.31348997       0.00032473       0.00026637       0.00028231
H        3.26022138       4.26631681       4.04526116       0.00033090      -0.00025814       0.00028051
H       -1.69677508      -0.20780907       2.84826289      -0.00033090       0.00025814      -0.00028051
H       -2.33663145       1.57479608       5.70054163       0.00014810       0.00006402       0.00016558
H        3.90007804       2.48371167       1.19298219      -0.00014810      -0.00006402      -0.00016558
H        1.91339557       3.60405397       4.92475582      -0.00010104       0.00005399      -0.00020954
H       -0.34994922       0.45445378       1.96876844       0.00010104      -0.00005399       0.00020954
