40
Lattice="5.6770950931408 1.632335985e-05 -0.41225139767579 -1.10166224e-05 4.3023812352399 -2.99480997e-06 -3.80153679304684 1.47272249e-06 7.99578179182707" Properties=species:S:1:pos:R:3:forces:R:3 pbc="T T T"
C        1.90248692       2.91128619       0.75581236       0.00025891       0.00005554       0.00065100
C       -0.02693978       1.39111290       6.82771507      -0.00025891      -0.00005554      -0.00065100
C        1.87383219       0.76010002       2.82982141      -0.00049957       0.00002700      -0.00015401
C        0.00171495       3.54229900       4.75370601       0.00049957      -0.00002700       0.00015401
C        1.87309746      -0.57382686      -0.27010073      -0.00018049       0.00016558      -0.00026971
C        0.00244993       4.87622588       7.85362800       0.00018049      -0.00016558       0.00026971
C        1.90322700       1.57737280       3.85574248       0.00010336      -0.00021057      -0.00012161
C       -0.02767980       2.72502622       3.72778518      -0.00010336       0.00021057       0.00012161
C        1.09311080       0.59574918      -0.18295412       0.00011981      -0.00041343      -0.00027305
C        0.78243664       3.70664984       7.76648163      -0.00011981       0.00041343       0.00027305
C        2.68320339       2.74694497       3.76859213       0.00037178       0.00040623       0.00040263
C       -0.80765591       1.55545405       3.81493528      -0.00037178      -0.00040623      -0.00040263
N       -2.88502093       1.39057715       6.81599195       0.00037435       0.00016661      -0.00050214
N        4.76056847       2.91182187       0.76753534      -0.00037435      -0.00016661       0.00050214
N        2.85979526       3.54178475       4.76543594      -0.00003317      -0.00032730      -0.00072762
N       -0.98424777       0.76061427       2.81809147       0.00003317       0.00032730       0.00072762
O        0.55806042       0.87994659       0.91569980       0.00012907       0.00011956       0.00014244
O        1.31748678       3.42245231       6.66782751      -0.00012907      -0.00011956      -0.00014244
O        3.21825879       3.03114892       2.66993087      -0.00040906       0.00000540       0.00051088
O       -1.34271164       1.27125023       4.91359656       0.00040906      -0.00000540      -0.00051088
H        1.35566565       3.11525495       1.63698268       0.00024528      -0.00068803       0.00008125
H        0.51988190       1.18714407       5.94654461      -0.00024528       0.00068803      -0.00008125
H        2.42065056       0.96406703       1.94865635      -0.00012007      -0.00063686      -0.00029593
H       -0.54510308       3.33833199       5.63487106       0.00012007       0.00063686       0.00029593
H        2.47619992       2.02781920       0.70859708      -0.00009385      -0.00017175      -0.00042012
H       -0.60065246       2.27457983       6.87493039       0.00009385       0.00017175       0.00042012
H        1.30012117      -0.12337334       2.87704193       0.00019566      -0.00001003       0.00040598
H        0.57542631       4.42577237       4.70648548      -0.00019566       0.00001003      -0.00040598
H       -1.55176132      -0.82108770       6.75912003       0.00026457      -0.00013575       0.00032242
H        3.42730872       5.12348662       0.82440721      -0.00026457       0.00013575      -0.00032242
H        1.52654964       1.33010961       4.82230071      -0.00028591      -0.00016044      -0.00023474
H        0.34899756       2.97228954       2.76122695       0.00028591       0.00016044       0.00023474
H       -3.48283374       2.20582873       7.01040448      -0.00030082      -0.00023628      -0.00038361
H        5.35838099       2.09657029       0.57312305       0.00030082       0.00023628       0.00038361
H        3.45760762       4.35703723       4.57101157       0.00023114      -0.00029516       0.00044403
H       -1.58206031      -0.05463821       3.01251586      -0.00023114       0.00029516      -0.00044403
H       -2.22336018       1.43130423       6.04631665      -0.00020389      -0.00037101       0.00011313
H        4.09890778       2.87109480       1.53721052       0.00020389       0.00037101      -0.00011313
H        2.19814018       3.58250789       5.53509748      -0.00014064      -0.00033759       0.00030468
H       -0.32259281       0.71989114       2.04843016       0.00014064       0.00033759      -0.00030468
