40
Lattice="6.05212626023684 2.11282198e-05 -0.27110645620702 -9.19834491e-06 4.54361651062351 -1.188873739e-05 -3.82440493985068 -1.570629735e-05 8.39546921296775" Properties=species:S:1:pos:R:3:forces:R:3 pbc="T T T"
C        2.02876937       3.18532862       0.82395059      -0.00033836       0.00087495      -0.00048877
C        0.19894259       1.35829337       7.30040031       0.00033836      -0.00087495       0.00048877
C        2.11115659       0.91353806       3.10267417      -0.00078342      -0.00129995      -0.00026148
C        0.11655537       3.63008386       5.02167673       0.00078342       0.00129995       0.00026148
C        1.90895859      -0.56373883      -0.22774776       0.00045611      -0.00003471       0.00077005
C        0.31875362       5.10736076       8.35209850      -0.00045611       0.00003471      -0.00077005
C        2.23096039       1.70806141       4.15437168      -0.00010413       0.00121485       0.00052553
C       -0.00324836       2.83556051       3.96997946       0.00010413      -0.00121485      -0.00052553
C        1.14356946       0.65534750      -0.12595808       0.00028951       0.00059701      -0.00132258
C        1.08414281       3.88827442       8.25030907      -0.00028951      -0.00059701       0.00132258
C        2.99634322       2.92716005       4.05259316       0.00035481       0.00062992      -0.00049571
C       -0.76863090       1.61646188       4.07175773      -0.00035481      -0.00062992       0.00049571
N       -2.85333418       1.42682023       7.22443053      -0.00007456      -0.00043606       0.00106007
N        5.08104655       3.11680169       0.89992023       0.00007456       0.00043606      -0.00106007
N        3.16885063       3.69865293       5.09765082      -0.00045560      -0.00042166      -0.00021006
N       -0.94113831       0.84496900       3.02670007       0.00045560       0.00042166       0.00021006
O        0.62612281       0.97795706       0.97656557      -0.00083175       0.00051294       0.00091788
O        1.60158920       3.56566473       7.14778520       0.00083175      -0.00051294      -0.00091788
O        3.51379702       3.24977625       2.95004317       0.00016969       0.00010079       0.00043452
O       -1.28608506       1.29384581       5.17430773      -0.00016969      -0.00010079      -0.00043452
H        1.56030646       3.42825009       1.75621184       0.00005476      -0.00008150      -0.00016147
H        0.66740591       1.11537183       6.36813892      -0.00005476       0.00008150       0.00016147
H        2.57960571       1.15644269       2.17041406       0.00013601       0.00005759      -0.00016481
H       -0.35189339       3.38717924       5.95393682      -0.00013601      -0.00005759       0.00016481
H        2.62503595       2.29786498       0.78517459      -0.00000489      -0.00061578      -0.00007739
H       -0.39732366       2.24575695       7.33917636       0.00000489       0.00061578       0.00007739
H        1.51487676       0.02604424       3.14145333       0.00066489       0.00035944       0.00000643
H        0.71283556       4.51757769       4.98289756      -0.00066489      -0.00035944      -0.00000643
H       -1.50515509      -0.80697754       7.20015072       0.00009899       0.00009873      -0.00004268
H        3.73286731       5.35059935       0.92419999      -0.00009899      -0.00009873       0.00004268
H        1.82067382       1.46484703       5.12195081      -0.00008973       0.00005605      -0.00009230
H        0.40703820       3.07877503       3.00240033       0.00008973      -0.00005605       0.00009230
H       -3.45192137       2.25210297       7.37392274       0.00000591      -0.00004937      -0.00025068
H        5.67963345       2.29151895       0.75042828      -0.00000591       0.00004937       0.00025068
H        3.76742799       4.52393632       4.94815806       0.00016918       0.00016404       0.00018486
H       -1.53971585       0.01968560       3.17619284      -0.00016918      -0.00016404      -0.00018486
H       -2.23181305       1.40451396       6.41300639       0.00016198       0.00040161      -0.00013113
H        4.45952548       3.13910797       1.71134425      -0.00016198      -0.00040161       0.00013113
H        2.54732315       3.67634223       5.90908216       0.00009924       0.00043966      -0.00011673
H       -0.31961095       0.86727970       2.21526898      -0.00009924      -0.00043966       0.00011673
