40
Lattice="5.60155069895162 1.811695483e-05 -0.47063511112281 -8.16990742e-06 4.241362919995 4.70612996e-06 -3.84293549110255 1.340259737e-05 7.85957586792715" Properties=species:S:1:pos:R:3:forces:R:3 pbc="T T T"
C        1.87001789       2.84442879       0.73067294      -0.00072274      -0.00129506       0.00154266
C       -0.11141099       1.39696570       6.65827256       0.00072274       0.00129506      -0.00154266
C        1.81006545       0.72375348       2.72846988      -0.00016815      -0.00079139       0.00065820
C       -0.05145856       3.51764095       4.66047562       0.00016815       0.00079139      -0.00065820
C        1.87998015      -0.56121700      -0.27723738       0.00024503       0.00007019      -0.00153521
C       -0.12137302       4.80261143       7.66618272      -0.00024503      -0.00007019       0.00153521
C        1.80009681       1.55948006       3.73640781       0.00012418      -0.00072814      -0.00090297
C       -0.04148987       2.68191436       3.65253791      -0.00012418       0.00072814       0.00090297
C        1.08305260       0.58410779      -0.19491916       0.00001800      -0.00021006       0.00092457
C        0.67555458       3.65728664       7.58386473      -0.00001800       0.00021006      -0.00092457
C        2.59702112       2.70479882       3.65406872       0.00034247       0.00125778       0.00060112
C       -0.83841389       1.53659560       3.73487676      -0.00034247      -0.00125778      -0.00060112
N       -2.92976624       1.39226442       6.68592553       0.00075436       0.00006505      -0.00196587
N        4.68837352       2.84913001       0.70301982      -0.00075436      -0.00006505       0.00196587
N        2.76689669       3.51296763       4.63283089       0.00014938      -0.00137143      -0.00109426
N       -1.00828946       0.72842680       2.75611458      -0.00014938       0.00137143       0.00109426
O        0.52797055       0.84565536       0.89700722      -0.00010336       0.00022754       0.00042989
O        1.23063640       3.39573893       6.49193816       0.00010336      -0.00022754      -0.00042989
O        3.15210867       2.96635287       2.56214132      -0.00012753       0.00014835       0.00020235
O       -1.39350178       1.27504168       4.82680418       0.00012753      -0.00014835      -0.00020235
H        1.27981296       3.02117461       1.58419623       0.00033887      -0.00076902      -0.00028154
H        0.47879433       1.22021982       5.80474912      -0.00033887       0.00076902       0.00028154
H        2.40025912       0.90049691       1.87496602       0.00016815      -0.00059778      -0.00043220
H       -0.64165189       3.34089751       5.51397945      -0.00016815       0.00059778       0.00043220
H        2.42798889       1.95753033       0.66838161       0.00038464      -0.00050111       0.00020826
H       -0.66938169       2.28386410       6.72056391      -0.00038464       0.00050111      -0.00020826
H        1.25208814      -0.16315176       2.79077376      -0.00013987      -0.00014630      -0.00026997
H        0.50651909       4.40454619       4.59817171       0.00013987       0.00014630       0.00026997
H       -1.61139518      -0.81427841       6.61230073      -0.00062992       0.00003548       0.00056487
H        3.37000232       5.05567273       0.77664457       0.00062992      -0.00003548      -0.00056487
H        1.44854396       1.30640930       4.70642226       0.00035687      -0.00020697       0.00025145
H        0.31006298       2.93498525       2.68252345      -0.00035687       0.00020697      -0.00025145
H       -3.52365511       2.20714443       6.89347025      -0.00044377      -0.00037384       0.00014244
H        5.28226211       2.03425000       0.49547535       0.00044377       0.00037384      -0.00014244
H        3.36079161       4.32784301       4.42526456       0.00025917      -0.00050368       0.00000206
H       -1.60218456      -0.08644858       2.96368093      -0.00025917       0.00050368      -0.00000206
H       -2.24794452       1.45629079       5.93949965      -0.00068726       0.00006582       0.00029002
H        4.00655187       2.78510364       1.44944559       0.00068726      -0.00006582      -0.00029002
H        2.08508899       3.57698446       5.37922720      -0.00014013       0.00017046       0.00058261
H       -0.32648189       0.66440996       2.00971851       0.00014013      -0.00017046      -0.00058261
