40
Lattice="5.54028909653399 3.75173996e-06 -0.54987261611248 -2.033015231e-05 4.14657014986816 -1.421711987e-05 -3.93098729776487 -1.07204324e-05 7.63440211220597" Properties=species:S:1:pos:R:3:forces:R:3 pbc="T T T"
C        1.84710803       2.74574798       0.69330167       0.00035198       0.00049365      -0.00017895
C       -0.23782668       1.40081524       6.39121363      -0.00035198      -0.00049365       0.00017895
C        1.72766448       0.67246719       2.57402809       0.00057078      -0.00045791      -0.00178255
C       -0.11838314       3.47409597       4.51048720      -0.00057078       0.00045791       0.00178255
C        1.92160043      -0.52574350      -0.28049909      -0.00124570       0.00120713       0.00156580
C       -0.31231884       4.67230667       7.36501423       0.00124570      -0.00120713      -0.00156580
C        1.65320440       1.54755133       3.54780100      -0.00066592      -0.00036381       0.00169050
C       -0.04392300       2.59901182       3.53671451       0.00066592       0.00036381      -0.00169050
C        1.07585615       0.56525923      -0.19806678       0.00225691      -0.00159948      -0.00181520
C        0.53342547       3.58130394       7.28258214      -0.00225691       0.00159948       0.00181520
C        2.49889308       2.63852018       3.46541362       0.00196509       0.00097419      -0.00264232
C       -0.88961141       1.50804297       3.61910165      -0.00196509      -0.00097419       0.00264232
N       -3.02121628       1.39978660       6.48992243      -0.00089063       0.00071400       0.00014604
N        4.63049801       2.74677656       0.59459272       0.00089063      -0.00071400      -0.00014604
N        2.66501648       3.47308486       4.41178193      -0.00139971      -0.00017406       0.00145833
N       -1.05573480       0.67347830       2.67273334       0.00139971       0.00017406      -0.00145833
O        0.48429102       0.77821858       0.88328131      -0.00087238       0.00026637       0.00185171
O        1.12499038       3.36834445       6.20123388       0.00087238      -0.00026637      -0.00185171
O        3.09050254       2.85150929       2.38400938      -0.00144342      -0.00058056       0.00183705
O       -1.48122119       1.29505400       4.70050592       0.00144342       0.00058056      -0.00183705
H        1.17521137       2.86752156       1.48801379      -0.00027614      -0.00021160       0.00017972
H        0.43407037       1.27904160       5.59650136       0.00027614       0.00021160      -0.00017972
H        2.39956922       0.79423795       1.77929989      -0.00019335      -0.00032010       0.00029876
H       -0.79028754       3.35232521       5.30521538       0.00019335       0.00032010      -0.00029876
H        2.37424634       1.85036250       0.59798761      -0.00016429       0.00012804       0.00007225
H       -0.76496469       2.29620066       6.48652770       0.00016429      -0.00012804      -0.00007225
H        1.20054187      -0.22292551       2.66933482       0.00004654       0.00006891       0.00001208
H        0.40873981       4.36948867       4.41518045      -0.00004654      -0.00006891      -0.00001208
H       -1.73510793      -0.80148047       6.36875895       0.00046666      -0.00051036      -0.00016661
H        3.34438953       4.94804353       0.71575616      -0.00046666       0.00051036       0.00016661
H        1.37891133       1.27180539       4.53298107      -0.00010799      -0.00006531      -0.00119839
H        0.23037006       2.87475790       2.55153445       0.00010799       0.00006531       0.00119839
H       -3.61541692       2.21291606       6.70843511       0.00011184      -0.00033913      -0.00009924
H        5.22469838       1.93364709       0.37608028      -0.00011184       0.00033913       0.00009924
H        3.25918901       4.28620224       4.19327581       0.00063043       0.00051242      -0.00027177
H       -1.64990750      -0.13963909       2.89123948      -0.00063043      -0.00051242       0.00027177
H       -2.30972430       1.50281461       5.78383847      -0.00018512       0.00006068      -0.00023140
H        3.91900610       2.64374855       1.30067657       0.00018512      -0.00006068       0.00023140
H        1.95350293       3.57610278       5.11787830       0.00099502       0.00006453      -0.00031239
H       -0.34422138       0.57046038       1.96663719      -0.00099502      -0.00006453       0.00031239
