40
Lattice="5.52438786840596 8.22750012e-06 -0.56943351109718 -1.645500025e-05 4.08748788171197 -0.0 -3.95781425225419 8.22750012e-06 7.52053572104335" Properties=species:S:1:pos:R:3:forces:R:3 pbc="T T T"
C        1.84852182       2.69376746       0.69187270      -0.00023191      -0.00029131       0.00041112
C       -0.28196383       1.39373358       6.25922869       0.00023191       0.00029131      -0.00041112
C        1.68366740       0.66739342       2.54215109      -0.00024785       0.00009359       0.00039081
C       -0.11710941       3.42010763       4.40894948       0.00024785      -0.00009359      -0.00039081
C        1.94100632      -0.51134901      -0.27769047      -0.00007919       0.00003085      -0.00016712
C       -0.37444834       4.59885005       7.22879186       0.00007919      -0.00003085       0.00016712
C        1.51171676       1.60951458       3.48361076      -0.00002417      -0.00024631      -0.00034607
C        0.05484040       2.47798646       3.46749062       0.00002417       0.00024631       0.00034607
C        1.07704559       0.55180198      -0.18222350      -0.00013550       0.00033964      -0.00014604
C        0.48951240       3.53569907       7.13332488       0.00013550      -0.00033964       0.00014604
C        2.46985029       2.61387597       3.39270676      -0.00035841      -0.00004139       0.00084204
C       -0.90329148       1.47362590       3.55839463       0.00035841       0.00004139      -0.00084204
N       -3.05398469       1.40334742       6.40828713       0.00038155      -0.00044763       0.00010207
N        4.62054350       2.68415363       0.54281343      -0.00038155       0.00044763      -0.00010207
N        2.63970949       3.47789347       4.30626451       0.00019360      -0.00004319      -0.00045457
N       -1.07315151       0.60960839       2.64483605      -0.00019360       0.00004319       0.00045457
O        0.48055430       0.73813182       0.90261682      -0.00002674      -0.00007842       0.00004705
O        1.08600287       3.34936923       6.04848456       0.00002674       0.00007842      -0.00004705
O        3.09813840       2.75344234       2.32142454       0.00027768      -0.00019052      -0.00050214
O       -1.53158041       1.33405870       4.62967603      -0.00027768       0.00019052       0.00050214
H        1.15543885       2.81898096       1.46623925      -0.00012727      -0.00008048      -0.00007251
H        0.41111913       1.26852091       5.48486214       0.00012727       0.00008048       0.00007251
H        2.43741008       0.73951898       1.81840834       0.00025634       0.00014013      -0.00016275
H       -0.87085127       3.34798207       5.13269304      -0.00025634      -0.00014013       0.00016275
H        2.35002333       1.78790077       0.59075590      -0.00005605      -0.00005734       0.00010284
H       -0.78346534       2.29960109       6.36034549       0.00005605       0.00005734      -0.00010284
H        1.16746664      -0.23124047       2.64753220       0.00006788      -0.00006351      -0.00012470
H        0.39909135       4.31874152       4.30356919      -0.00006788       0.00006351       0.00012470
H       -1.77760241      -0.78902220       6.24999167       0.00003625       0.00010542       0.00020620
H        3.34416122       4.87652324       0.70110971      -0.00003625      -0.00010542      -0.00020620
H        1.43893218       1.25725417       4.49616345      -0.00023217       0.00001028       0.00009873
H        0.12762580       2.83024688       2.45493794       0.00023217      -0.00001028      -0.00009873
H       -3.65150195       2.21576369       6.62398256       0.00002597       0.00024914      -0.00008433
H        5.21805994       1.87173736       0.32711882      -0.00002597      -0.00024914       0.00008433
H        3.25094858       4.28562665       4.09160492      -0.00005014      -0.00006222       0.00014424
H       -1.68439060      -0.19812561       2.85949646       0.00005014       0.00006222      -0.00014424
H       -2.31323818       1.53920072       5.74440932       0.00002957      -0.00032602       0.00016584
H        3.87979616       2.54830115       1.20669124      -0.00002957       0.00032602      -0.00016584
H        1.92241300       3.60230479       5.00028706      -0.00011647      -0.00001003      -0.00003857
H       -0.35585501       0.48519707       1.95081433       0.00011647       0.00001003       0.00003857
