40
Lattice="5.89915442749608 1.824036733e-05 -0.32019536553088 -1.05641099e-05 4.4413820244087 -4.96118245e-06 -3.80234054574183 -1.97459998e-06 8.24686943254863" Properties=species:S:1:pos:R:3:forces:R:3 pbc="T T T"
C        1.98216498       3.06588107       0.80210476      -0.00002083       0.00002777       0.00081478
C        0.11463818       1.37551727       7.12456439       0.00002083      -0.00002777      -0.00081478
C        2.01581115       0.84519347       3.00112768      -0.00011853       0.00005476      -0.00042038
C        0.08099201       3.59620481       4.92554146       0.00011853      -0.00005476       0.00042038
C        1.89187888      -0.57643516      -0.24387968      -0.00003342       0.00011184      -0.00011776
C        0.20492453       5.01783344       8.17054866       0.00003342      -0.00011184       0.00011776
C        2.10610131       1.64426152       4.04712259       0.00017535       0.00008048      -0.00039801
C       -0.00929808       2.79713676       3.87954679      -0.00017535      -0.00008048       0.00039801
C        1.12312674       0.62633266      -0.14978259      -0.00016429      -0.00037512      -0.00015555
C        0.97367673       3.81506562       8.07645183       0.00016429       0.00037512       0.00015555
C        2.87484902       2.84703416       3.95301983       0.00017149      -0.00035584       0.00012804
C       -0.77804551       1.59436411       3.97364930      -0.00017149       0.00035584      -0.00012804
N       -2.85779814       1.40314049       7.06784704       0.00044069      -0.00019026       0.00024888
N        4.95460172       3.03825779       0.85882197      -0.00044069       0.00019026      -0.00024888
N        3.05342532       3.62384560       4.98226314       0.00014347       0.00004191      -0.00099013
N       -0.95662181       0.81755268       2.94440599      -0.00014347      -0.00004191       0.00099013
O        0.60458762       0.94045722       0.95324054       0.00026919      -0.00015632       0.00019463
O        1.49221560       3.50094092       6.97342848      -0.00026919       0.00015632      -0.00019463
O        3.39338732       3.16115985       2.84999096      -0.00037358      -0.00017535       0.00014295
O       -1.29658415       1.28023855       5.07667818       0.00037358       0.00017535      -0.00014295
H        1.48459090       3.29475218       1.71683969      -0.00015812       0.00022446       0.00031342
H        0.61221268       1.14664609       6.20982931       0.00015812      -0.00022446      -0.00031342
H        2.51338276       1.07406579       2.08639596       0.00022343       0.00025582      -0.00043606
H       -0.41657924       3.36733248       5.84027316      -0.00022343      -0.00025582       0.00043606
H        2.57751964       2.18424278       0.76685815      -0.00035893       0.00013730       0.00017561
H       -0.48071615       2.25715549       7.15981104       0.00035893      -0.00013730      -0.00017561
H        1.42045877      -0.03644948       3.03637885       0.00042500       0.00022729      -0.00019849
H        0.67634474       4.47784776       4.89029028      -0.00042500      -0.00022729       0.00019849
H       -1.50369584      -0.82056762       7.03872378       0.00015401      -0.00021623       0.00046666
H        3.60049926       5.26196579       0.88794517      -0.00015401       0.00021623      -0.00046666
H        1.69933913       1.40013152       5.01138334      -0.00023114      -0.00026559      -0.00027742
H        0.39746410       3.04126689       2.91528604       0.00023114       0.00026559       0.00027742
H       -3.45872633       2.22298862       7.23448268      -0.00050676      -0.00055099       0.00045226
H        5.55552961       2.21840965       0.69218658       0.00050676       0.00055099      -0.00045226
H        3.65435613       4.44370135       4.81561754       0.00031933      -0.00077956      -0.00034684
H       -1.55755279      -0.00230308       3.11105159      -0.00031933       0.00077956       0.00034684
H       -2.22425309       1.40454131       6.26798567      -0.00014732       0.00050162       0.00042757
H        4.32105673       3.03685696       1.65868321       0.00014732      -0.00050162      -0.00042757
H        2.41988837       3.62524663       5.78211449      -0.00016815       0.00048620      -0.00004011
H       -0.32308497       0.81615165       2.14455488       0.00016815      -0.00048620       0.00004011
