40
Lattice="6.23361637662366 1.272794238e-05 -0.21777388469782 -1.460381236e-05 4.64864622411721 8.91038242e-06 -3.85809694695589 2.811336724e-05 8.55842898379019" Properties=species:S:1:pos:R:3:forces:R:3 pbc="T T T"
C        2.08531792       3.31149607       0.84558016       0.00053993      -0.00192370       0.00266906
C        0.29018673       1.33719107       7.49508388      -0.00053993       0.00192370      -0.00266906
C        2.21923208       0.98716121       3.21584369       0.00010979       0.00143313       0.00204737
C        0.15627257       3.66152586       5.12482035      -0.00010979      -0.00143313      -0.00204737
C        1.93157599      -0.54486402      -0.20798314      -0.00008485       0.00183320      -0.00251428
C        0.44392891       5.19355109       8.54864701       0.00008485      -0.00183320       0.00251428
C        2.37299195       1.77950081       4.26946336      -0.00036175      -0.00120328      -0.00234305
C        0.00251277       2.86918626       4.07120093       0.00036175       0.00120328       0.00234305
C        1.16784908       0.68828367      -0.09663444       0.00003445      -0.00068880       0.00160745
C        1.20765590       3.96040340       8.43729858      -0.00003445       0.00068880      -0.00160745
C        3.13670996       3.01262348       4.15806815      -0.00033424       0.00018975       0.00099707
C       -0.76120494       1.63606359       4.18259587       0.00033424      -0.00018975      -0.00099707
N       -2.85247077       1.45507789       7.40128023      -0.00011313       0.00093074      -0.00138634
N        5.22797585       3.19360918       0.93938367       0.00011313      -0.00093074       0.00138634
N        3.29892896       3.77941367       5.21861021       0.00018512      -0.00003882      -0.00001568
N       -0.92342394       0.86927340       3.12205382      -0.00018512       0.00003882       0.00001568
O        0.64753789       1.01663005       1.00350513       0.00001517       0.00010773      -0.00065075
O        1.72796682       3.63205688       7.33715878      -0.00001517      -0.00010773       0.00065075
O        3.65701207       3.34096458       3.05795406       0.00052142       0.00039698      -0.00063532
O       -1.28150742       1.30772263       5.28270999      -0.00052142      -0.00039698       0.00063532
H        1.65505956       3.56721953       1.79783816       0.00014784      -0.00017304      -0.00011673
H        0.72044552       1.08146754       6.54282574      -0.00014784       0.00017304       0.00011673
H        2.64949066       1.24289800       2.26362414       0.00025788       0.00004268      -0.00085386
H       -0.27398563       3.40578907       6.07703990      -0.00025788      -0.00004268       0.00085386
H        2.67672454       2.41478221       0.79371873      -0.00046331       0.00022471       0.00009796
H       -0.30121954       2.23390486       7.54694536       0.00046331      -0.00022471      -0.00009796
H        1.62783891       0.09047282       3.26773233      -0.00004268      -0.00055690      -0.00011210
H        0.74766611       4.55821425       5.07293171       0.00004268       0.00055690       0.00011210
H       -1.52420409      -0.78990495       7.37574802      -0.00022189       0.00038644       0.00045380
H        3.89970901       5.43859190       0.96491583       0.00022189      -0.00038644      -0.00045380
H        1.97067589       1.53442142       5.24412330      -0.00012213       0.00021289       0.00048362
H        0.40482884       3.11426579       3.09654099       0.00012213      -0.00021289      -0.00048362
H       -3.44729640       2.28658675       7.53046959      -0.00017226      -0.00013961       0.00014964
H        5.82280118       2.36210032       0.81019457       0.00017226       0.00013961      -0.00014964
H        3.89374790       4.61091571       5.08941409       0.00022600      -0.00001774      -0.00016944
H       -1.51824306       0.03777136       3.25124995      -0.00022600       0.00001774       0.00016944
H       -2.24207573       1.40449521       6.58128082       0.00009462       0.00018461       0.00004294
H        4.61758087       3.24419186       1.75938296      -0.00009462      -0.00018461      -0.00004294
H        2.68853534       3.72882999       6.03860041      -0.00029285       0.00019643       0.00015298
H       -0.31303043       0.91985708       2.30206387       0.00029285      -0.00019643      -0.00015298
