40
Lattice="5.54393201958496 1.07204324e-05 -0.54438113015129 -1.384688237e-05 4.15623199099038 -1.92523498e-06 -3.92388910448119 5.69342995e-06 7.65608000305094" Properties=species:S:1:pos:R:3:forces:R:3 pbc="T T T"
C        1.84753207       2.75492258       0.69689427      -0.00063455       0.00019335       0.00103127
C       -0.22750312       1.40132586       6.41480270       0.00063455      -0.00019335      -0.00103127
C        1.73445268       0.67681619       2.58675432      -0.00039055      -0.00038567       0.00001568
C       -0.11442374       3.47943219       4.52494264       0.00039055       0.00038567      -0.00001568
C        1.91553066      -0.53046520      -0.28011814      -0.00038284       0.00036587      -0.00005116
C       -0.29550147       4.68671358       7.39181496       0.00038284      -0.00036587       0.00005116
C        1.66645724       1.54766283       3.56377485       0.00002700      -0.00036484       0.00001877
C       -0.04642824       2.60858555       3.54792233      -0.00002700       0.00036484      -0.00001877
C        1.07618397       0.56703330      -0.19866773       0.00011647      -0.00011313       0.00058724
C        0.54384526       3.58921509       7.31036477      -0.00011647       0.00011313      -0.00058724
C        2.50579256       2.64515233       3.48231660      -0.00009385       0.00079781       0.00064843
C       -0.88576328       1.51109605       3.62938034       0.00009385      -0.00079781      -0.00064843
N       -3.01328391       1.39859983       6.50744862      -0.00062221       0.00036818       0.00030082
N        4.63331324       2.75764854       0.60424821       0.00062221      -0.00036818      -0.00030082
N        2.67137232       3.47672724       4.43228485      -0.00004011      -0.00030133      -0.00019180
N       -1.05134304       0.67952114       2.67941209       0.00004011       0.00030133       0.00019180
O        0.48781814       0.78589024       0.88337683       0.00033064       0.00018306      -0.00064740
O        1.13221087       3.37035801       6.22832002      -0.00033064      -0.00018306       0.00064740
O        3.09415240       2.86401490       2.40028931       0.00014707       0.00019335      -0.00037384
O       -1.47412344       1.29223360       4.71140766      -0.00014707      -0.00019335       0.00037384
H        1.18308645       2.88142601       1.49761488       0.00031393      -0.00005476      -0.00049134
H        0.43694289       1.27482237       5.61408194      -0.00031393       0.00005476       0.00049134
H        2.39888374       0.80331215       1.78604751       0.00024040       0.00005605      -0.00015838
H       -0.77885445       3.35293623       5.32564942      -0.00024040      -0.00005605       0.00015838
H        2.37805670       1.86059874       0.60476561       0.00015349      -0.00063789       0.00002803
H       -0.75802745       2.29564964       6.50693138      -0.00015349       0.00063789      -0.00002803
H        1.20392160      -0.21752202       2.67889240       0.00020646      -0.00003188      -0.00006839
H        0.41610768       4.37377041       4.43280454      -0.00020646       0.00003188       0.00006839
H       -1.72297494      -0.80288623       6.39308809       0.00029568      -0.00025994       0.00017663
H        3.34300414       4.95913451       0.71860869      -0.00029568       0.00025994      -0.00017663
H        1.38107079       1.27523209       4.54665357      -0.00021829      -0.00021494      -0.00041523
H        0.23895821       2.88101642       2.56504361       0.00021829       0.00021494       0.00041523
H       -3.60682559       2.21202672       6.72569953       0.00009205       0.00011647      -0.00013755
H        5.22685465       1.94422166       0.38599753      -0.00009205      -0.00011647       0.00013755
H        3.26490139       4.29015123       4.21403775       0.00003651       0.00026328       0.00000437
H       -1.64487227      -0.13390286       2.89765921      -0.00003651      -0.00026328      -0.00000437
H       -2.30432853       1.49767915       5.79749036       0.00001543       0.00012058      -0.00036818
H        3.92435793       2.65856923       1.31420635      -0.00001543      -0.00012058       0.00036818
H        1.96240636       3.57580313       5.14225064       0.00036638       0.00009359      -0.00004911
H       -0.34237720       0.58044525       1.96944652      -0.00036638      -0.00009359       0.00004911
