40
Lattice="5.87353584392293 2.11611298e-05 -0.32903577306078 -8.72937742e-06 4.42523596718455 -1.461203986e-05 -3.79957049461271 -2.18440123e-05 8.22076384680004" Properties=species:S:1:pos:R:3:forces:R:3 pbc="T T T"
C        1.97376331       3.04738770       0.79781822      -0.00022394       0.00023706      -0.00020852
C        0.10019316       1.37784764       7.09389529       0.00022394      -0.00023706       0.00020852
C        1.99998282       0.83477457       2.98351860      -0.00015607      -0.00086620      -0.00060241
C        0.07397365       3.59046070       4.90819489       0.00015607       0.00086620       0.00060241
C        1.88896523      -0.57755666      -0.24671089       0.00020543      -0.00056976       0.00026508
C        0.18499149       5.00279193       8.13842423      -0.00020543       0.00056976      -0.00026508
C        2.08477720       1.63504636       4.02805279       0.00047077       0.00097368       0.00031419
C       -0.01082066       2.79018890       3.86366094      -0.00047077      -0.00097368      -0.00031419
C        1.11963977       0.62218016      -0.15349213      -0.00000309       0.00120199      -0.00135934
C        0.95431700       3.80305510       8.04520572       0.00000309      -0.00120199       0.00135934
C        2.85410849       2.83481620       3.93484428      -0.00045971      -0.00094077      -0.00127578
C       -0.78015167       1.59041907       3.95686921       0.00045971       0.00094077       0.00127578
N       -2.85902072       1.40041346       7.04114194       0.00002108      -0.00099939       0.00156657
N        4.93297760       3.02482181       0.85057143      -0.00002108       0.00099939      -0.00156657
N        3.03318949       3.61303936       4.96093445       0.00014758       0.00113231       0.00091531
N       -0.95923267       0.81219591       2.93077903      -0.00014758      -0.00113231      -0.00091531
O        0.60036397       0.93410440       0.94943533      -0.00017741       0.00013293       0.00041112
O        1.47359256       3.49113073       6.94227805       0.00017741      -0.00013293      -0.00041112
O        3.37338049       3.14673112       2.83189273      -0.00013755       0.00003008       0.00031856
O       -1.29942402       1.27850428       5.05982077       0.00013755      -0.00003008      -0.00031856
H        1.47167559       3.27396873       1.70955343      -0.00009153       0.00012933       0.00014552
H        0.60228128       1.15126653       6.18215993       0.00009153      -0.00012933      -0.00014552
H        2.50206683       1.06135367       2.07177843       0.00006068       0.00013781      -0.00007842
H       -0.42811001       3.36388160       5.81993505      -0.00006068      -0.00013781       0.00007842
H        2.56780437       2.16610598       0.76218581      -0.00001131      -0.00023320      -0.00011441
H       -0.49384758       2.25912929       7.12952773       0.00001131       0.00023320       0.00011441
H        1.40594028      -0.04652123       3.01915406       0.00027999       0.00014115       0.00004911
H        0.66801654       4.47175650       4.87255942      -0.00027999      -0.00014115      -0.00004911
H       -1.50577834      -0.82188446       7.00990500       0.00010490      -0.00014604       0.00031445
H        3.57973507       5.24711961       0.88180831      -0.00010490       0.00014604      -0.00031445
H        1.67995847       1.39074785       4.99220043      -0.00020800      -0.00022754      -0.00016404
H        0.39399806       3.03448755       2.89951330       0.00020800       0.00022754       0.00016404
H       -3.46013179       2.21942983       7.21072816      -0.00019026      -0.00010439      -0.00024631
H        5.53408838       2.20580543       0.68098546       0.00019026       0.00010439       0.00024631
H        3.63429963       4.43207744       4.79135970       0.00003522      -0.00038464       0.00027922
H       -1.56034298      -0.00684218       3.10035379      -0.00003522       0.00038464      -0.00027922
H       -2.22313872       1.40585297       6.24370895       0.00027639       0.00003240      -0.00031033
H        4.29709566       3.01938229       1.64800429      -0.00027639      -0.00003240       0.00031033
H        2.39730641       3.61848832       5.75838716       0.00006608      -0.00005425      -0.00012521
H       -0.32334970       0.80674695       2.13332657      -0.00006608       0.00005425       0.00012521
