40
Lattice="6.62055528663345 1.993523231e-05 -0.15556996203149 -1.564047735e-05 4.82152479733948 -6.43390494e-06 -4.00486526943712 6.54908994e-06 8.72636712431363" Properties=species:S:1:pos:R:3:forces:R:3 pbc="T T T"
C        2.17544847       3.53709104       0.87988142       0.00015709       0.00009822       0.00054739
C        0.44022573       1.28446033       7.69090933      -0.00015709      -0.00009822      -0.00054739
C        2.44265776       1.12633109       3.32772205      -0.00002803       0.00055047      -0.00002982
C        0.17301643       3.69522020       5.24306870       0.00002803      -0.00055047       0.00002982
C        1.98397577      -0.47740179      -0.16150464       0.00021777       0.00051885      -0.00065280
C        0.63169870       5.29895310       8.73229523      -0.00021777      -0.00051885       0.00065280
C        2.63414226       1.93337435       4.36911941      -0.00025917       0.00017072       0.00007945
C       -0.01846800       2.88817695       4.20167161       0.00025917      -0.00017072      -0.00007945
C        1.20965401       0.76331094      -0.03650536       0.00039184       0.00005862      -0.00012521
C        1.40602052       4.05824035       8.60729622      -0.00039184      -0.00005862       0.00012521
C        3.40845831       3.17409019       4.24411102      -0.00063506      -0.00008845       0.00049365
C       -0.79278372       1.64746110       4.32667972       0.00063506       0.00008845      -0.00049365
N       -2.92545491       1.53081429       7.61324783       0.00083767      -0.00005014       0.00027896
N        5.54112956       3.29073700       0.95754279      -0.00083767       0.00005014      -0.00027896
N        3.53869266       3.94158805       5.32072626      -0.00056204       0.00020492      -0.00043812
N       -0.92301808       0.87996324       3.25006449       0.00056204      -0.00020492       0.00043812
O        0.66831595       1.08762915       1.05443726       0.00001234      -0.00022291      -0.00047231
O        1.94735830       3.73392200       7.51635337      -0.00001234       0.00022291       0.00047231
O        3.94978984       3.49840543       3.15317191       0.00016481      -0.00010696       0.00016558
O       -1.33411565       1.32314601       5.41761884      -0.00016481       0.00010696      -0.00016558
H        1.77170297       3.77555991       1.85501248      -0.00010799       0.00017252      -0.00010876
H        0.84397168       1.04599138       6.71577814       0.00010799      -0.00017252       0.00010876
H        2.84640277       1.36480245       2.35259421       0.00013807       0.00018178       0.00002185
H       -0.23072819       3.45674884       6.21819654      -0.00013807      -0.00018178      -0.00002185
H        2.76401797       2.63316675       0.79312590      -0.00015375       0.00012958      -0.00029696
H       -0.14834342       2.18838454       7.77766491       0.00015375      -0.00012958       0.00029696
H        1.85409625       0.22240750       3.41448329       0.00007739       0.00001106       0.00029953
H        0.76157834       4.59914379       5.15630746      -0.00007739      -0.00001106      -0.00029953
H       -1.61831429      -0.70955130       7.58199879       0.00001594       0.00002365      -0.00036998
H        4.23398876       5.53110248       0.98879177      -0.00001594      -0.00002365       0.00036998
H        2.23156849       1.70121657       5.35197933      -0.00005091       0.00001466       0.00047385
H        0.38410578       3.12033487       3.21881168       0.00005091      -0.00001466      -0.00047385
H       -3.51681519       2.36996651       7.70404353       0.00008665      -0.00027485      -0.00026868
H        6.13248952       2.45158479       0.86674736      -0.00008665       0.00027485       0.00026868
H        4.13005008       4.78074823       5.22992776      -0.00020440      -0.00043940       0.00029439
H       -1.51437569       0.04080307       3.34086299       0.00020440       0.00043940      -0.00029439
H       -2.32406089       1.43437988       6.78955846      -0.00000283      -0.00016198      -0.00043606
H        4.93973560       3.38717141       1.78123203       0.00000283       0.00016198       0.00043606
H        2.93730138       3.84515603       6.14441374      -0.00009102      -0.00019849       0.00052913
H       -0.32162692       0.97639527       2.42637727       0.00009102       0.00019849      -0.00052913
