40
Lattice="6.13223388093589 2.049470231e-05 -0.24664999877052 -9.21479991e-06 4.59454582117767 -7.75030493e-06 -3.83791688069944 -6.73009494e-06 8.46956621714295" Properties=species:S:1:pos:R:3:forces:R:3 pbc="T T T"
C        2.05309493       3.24604795       0.83333826      -0.00027768       0.00055356       0.00033450
C        0.24121269       1.34851170       7.38957024       0.00027768      -0.00055356      -0.00033450
C        2.16017616       0.94878209       3.15479334      -0.00012624       0.00000231      -0.00016866
C        0.13413145       3.64577749       5.06811516       0.00012624      -0.00000231       0.00016866
C        1.91824552      -0.55502729      -0.21959685       0.00054405       0.00051885       0.00005605
C        0.37606235       5.14958688       8.44250519      -0.00054405      -0.00051885      -0.00005605
C        2.29502650       1.74224909       4.20773678      -0.00033501       0.00082352      -0.00016764
C       -0.00071881       2.85231049       4.01517197       0.00033501      -0.00082352       0.00016764
C        1.15426850       0.67118280      -0.11296394      -0.00034684       0.00006196       0.00005065
C        1.14003944       3.92337678       8.33587255       0.00034684      -0.00006196      -0.00005065
C        3.05900140       2.96846641       4.10109792       0.00032704      -0.00006608      -0.00031265
C       -0.76469342       1.62609318       4.12181058      -0.00032704       0.00006608       0.00031265
N       -2.85180604       1.44067288       7.30442572       0.00035378      -0.00015272      -0.00000051
N        5.14611408       3.15388670       0.91848265      -0.00035378       0.00015272       0.00000051
N        3.22715183       3.73796234       5.15327435       0.00037281       0.00036535      -0.00066952
N       -0.93284385       0.85659725       3.06963414      -0.00037281      -0.00036535       0.00066952
O        0.63611174       0.99649890       0.98881853      -0.00066206       0.00046100       0.00022111
O        1.65819594       3.59806054       7.23408985       0.00066206      -0.00046100      -0.00022111
O        3.57715671       3.29378096       2.99930590       0.00051242       0.00042243       0.00023217
O       -1.28284909       1.30077876       5.22360261      -0.00051242      -0.00042243      -0.00023217
H        1.60187460       3.49570621       1.77482921       0.00023834      -0.00017792      -0.00015452
H        0.69243344       1.09885337       6.44807915      -0.00023834       0.00017792       0.00015452
H        2.61139124       1.19843481       2.21330584      -0.00013395      -0.00010953      -0.00005296
H       -0.31708326       3.39612478       6.00960265       0.00013395       0.00010953       0.00005296
H        2.64721640       2.35428739       0.78938862      -0.00024091      -0.00055947       0.00014784
H       -0.35290845       2.24027219       7.43351993       0.00024091       0.00055947      -0.00014784
H        1.56605214       0.05701013       3.19874790       0.00046717      -0.00022446      -0.00019052
H        0.72825584       4.53754945       5.02416060      -0.00046717       0.00022446       0.00019052
H       -1.51216186      -0.79826698       7.27923002       0.00009487       0.00006042       0.00005554
H        3.80646974       5.39282645       0.94367830      -0.00009487      -0.00006042      -0.00005554
H        1.88752008       1.49902088       5.17847446      -0.00014450       0.00001928       0.00004757
H        0.40678760       3.09553883       3.04443429       0.00014450      -0.00001928      -0.00004757
H       -3.44855463       2.26896817       7.44488034      -0.00018769      -0.00009822      -0.00004397
H        5.74286238       2.32559141       0.77802828       0.00018769       0.00009822       0.00004397
H        3.82390507       4.56626864       5.01280692      -0.00007508      -0.00044094       0.00016532
H       -1.52959727       0.02829095       3.21010158       0.00007508       0.00044094      -0.00016532
H       -2.23564821       1.40557537       6.48852158      -0.00025608       0.00040906       0.00040135
H        4.52995631       3.18898421       1.73438667       0.00025608      -0.00040906      -0.00040135
H        2.61100382       3.70286922       5.96916813      -0.00009385       0.00035713       0.00004191
H       -0.31669595       0.89169036       2.25374061       0.00009385      -0.00035713      -0.00004191
