40
Lattice="5.56884953788965 1.447217236e-05 -0.50954533600676 -1.134572239e-05 4.20137685899359 -5.72633995e-06 -3.88301954162804 -3.51314247e-06 7.76335151281369" Properties=species:S:1:pos:R:3:forces:R:3 pbc="T T T"
C        1.85560463       2.80086118       0.71438762       0.00011364      -0.00004705      -0.00009744
C       -0.16978612       1.40052669       6.53941286      -0.00011364       0.00004705       0.00009744
C        1.77172274       0.70017475       2.65774330       0.00019952      -0.00026174      -0.00066669
C       -0.08590423       3.50121306       4.59605716      -0.00019952       0.00026174       0.00066669
C        1.89309597      -0.54884369      -0.27885291      -0.00014552      -0.00018666       0.00035276
C       -0.20727721       4.75023151       7.53265323       0.00014552       0.00018666      -0.00035276
C        1.73424023       1.55184393       3.65097869       0.00026045       0.00034787       0.00017843
C       -0.04842167       2.64954387       3.60282200      -0.00026045      -0.00034787      -0.00017843
C        1.07893182       0.57602192      -0.19867720      -0.00011827       0.00011390       0.00045431
C        0.60688697       3.62536589       7.45247775       0.00011827      -0.00011390      -0.00045431
C        2.54840189       2.67671972       3.57080050      -0.00021829      -0.00018769      -0.00019463
C       -0.86258305       1.52466808       3.68299995       0.00021829       0.00018769       0.00019463
N       -2.97020433       1.39442443       6.59874441       0.00020363       0.00017509      -0.00043863
N        4.65602323       2.80696338       0.65505592      -0.00020363      -0.00017509       0.00043863
N        2.71451290       3.49512651       4.53672860      -0.00033373       0.00017921       0.00067080
N       -1.02869405       0.70626130       2.71707185       0.00033373      -0.00017921      -0.00067080
O        0.50757201       0.81943951       0.88791767       0.00017149      -0.00035790      -0.00041652
O        1.17824656       3.38194817       6.36588269      -0.00017149       0.00035790       0.00041652
O        3.11975611       2.92013636       2.48421067       0.00001980      -0.00030133       0.00002263
O       -1.43393759       1.28125157       4.76958980      -0.00001980       0.00030133      -0.00002263
H        1.22979415       2.95333558       1.54396131       0.00009565      -0.00008639       0.00027434
H        0.45602476       1.24805223       5.70983902      -0.00009565       0.00008639      -0.00027434
H        2.39753703       0.85265107       1.82816094      -0.00031239      -0.00013575       0.00002263
H       -0.71171818       3.34873674       5.42563950       0.00031239       0.00013575      -0.00002263
H        2.40158965       1.91094966       0.63858970      -0.00013010       0.00002700      -0.00025325
H       -0.71577084       2.29043815       6.61521080       0.00013010      -0.00002700       0.00025325
H        1.22574622      -0.18973888       2.73353790       0.00006916      -0.00006942       0.00027022
H        0.46007262       4.39112669       4.52026255      -0.00006916       0.00006942      -0.00027022
H       -1.66343789      -0.80892495       6.50989285       0.00032344      -0.00021803       0.00040238
H        3.34925666       5.01031266       0.74390744      -0.00032344       0.00021803      -0.00040238
H        1.40775707       1.29176965       4.62558821      -0.00031445      -0.00019309      -0.00046511
H        0.27806149       2.90961828       2.62821249       0.00031445       0.00019309       0.00046511
H       -3.56258943       2.20896083       6.81300373      -0.00022369      -0.00007688      -0.00010259
H        5.24840806       1.99242698       0.44079685       0.00022369       0.00007688       0.00010259
H        3.30689130       4.30966492       4.32246979       0.00025325      -0.00004345       0.00008690
H       -1.62107263      -0.10827711       2.93133067      -0.00025325       0.00004345      -0.00008690
H       -2.27453961       1.47496010       5.86983266      -0.00034581       0.00018975      -0.00002880
H        3.96035858       2.72642771       1.38396755       0.00034581      -0.00018975       0.00002880
H        2.01884505       3.57565882       5.26564313       0.00044197       0.00018178      -0.00007225
H       -0.33302633       0.62572899       1.98815754      -0.00044197      -0.00018178       0.00007225
