40
Lattice="5.82599149138715 1.313108988e-05 -0.34581453325652 -1.347664487e-05 4.39552147086968 4.71435746e-06 -3.79499538759296 1.784544733e-05 8.17156011448725" Properties=species:S:1:pos:R:3:forces:R:3 pbc="T T T"
C        1.95782917       3.01392325       0.78898933       0.00009822      -0.00079653       0.00168767
C        0.07315331       1.38162924       7.03676100      -0.00009822       0.00079653      -0.00168767
C        1.97064851       0.81615185       2.95096361       0.00034427       0.00181340       0.00123104
C        0.06033397       3.57940057       4.87478672      -0.00034427      -0.00181340      -0.00123104
C        1.88378703      -0.57868407      -0.25243151       0.00061012      -0.00012393      -0.00169821
C        0.14719569       4.97423650       8.07818168      -0.00061012       0.00012393       0.00169821
C        2.04469937       1.61909551       3.99242158      -0.00008356      -0.00111175      -0.00195764
C       -0.01371683       2.77645691       3.83332898       0.00008356       0.00111175       0.00195764
C        1.11323315       0.61516281      -0.16058146      -0.00184297       0.00076156       0.00262098
C        0.91774963       3.78038961       7.98633188       0.00184297      -0.00076156      -0.00262098
C        2.81527335       2.81296157       3.90052458      -0.00098885      -0.00151412       0.00107395
C       -0.78429053       1.58259085       3.92522573       0.00098885       0.00151412      -0.00107395
N       -2.86143757       1.39632242       6.99096199       0.00106187      -0.00073894      -0.00042912
N        4.89242046       2.99923000       0.83478820      -0.00106187       0.00073894       0.00042912
N        2.99491456       3.59407874       4.92056142      -0.00006505       0.00060781       0.00088806
N       -0.96393173       0.80147368       2.90518889       0.00006505      -0.00060781      -0.00088806
O        0.59213214       0.92226270       0.94210682       0.00137245      -0.00048208      -0.00201832
O        1.43885040       3.47328959       6.88364339      -0.00137245       0.00048208       0.00201832
O        3.33633347       3.12002757       2.79789555       0.00058544       0.00058287      -0.00199800
O       -1.30535099       1.27552499       5.02785478      -0.00058544      -0.00058287       0.00199800
H        1.44760180       3.23658551       1.69503855      -0.00001260      -0.00025840       0.00023783
H        0.58338109       1.15896691       6.13071164       0.00001260       0.00025840      -0.00023783
H        2.48087827       1.03882794       2.04493305       0.00024297      -0.00017741      -0.00061244
H       -0.44989544       3.35672448       5.78081726      -0.00024297       0.00017741       0.00061244
H        2.54866826       2.13286455       0.75205482      -0.00034684       0.00029156       0.00048722
H       -0.51768546       2.26268788       7.07369554       0.00034684      -0.00029156      -0.00048722
H        1.37982324      -0.06488565       2.98791319      -0.00014604      -0.00048800      -0.00050316
H        0.65115958       4.46043807       4.83783712       0.00014604       0.00048800       0.00050316
H       -1.51099988      -0.82320561       6.95482540      -0.00015092      -0.00017201       0.00091531
H        3.54198262       5.21875793       0.87092473       0.00015092       0.00017201      -0.00091531
H        1.64449873       1.37455795       4.95669560      -0.00019566      -0.00036201      -0.00003188
H        0.38648381       3.02099460       2.86905497       0.00019566       0.00036201       0.00003188
H       -3.46247195       2.21409337       7.16591577      -0.00067003      -0.00022626       0.00057233
H        5.49345455       2.18145905       0.65983467       0.00067003       0.00022626      -0.00057233
H        3.59595374       4.41186827       4.74561649       0.00019952      -0.00084975      -0.00044840
H       -1.56497109      -0.01631584       3.08013383      -0.00019952       0.00084975       0.00044840
H       -2.22076727       1.40910701       6.19849425      -0.00042629       0.00015812       0.00035918
H        4.25175021       2.98644541       1.62725582       0.00042629      -0.00015812      -0.00035918
H        2.35424971       3.60687909       5.71304075       0.00042038       0.00003497      -0.00063712
H       -0.32326701       0.78867333       2.11270980      -0.00042038      -0.00003497       0.00063712
