40
Lattice="5.76289344516668 1.433230487e-05 -0.37064455209953 -1.280198988e-05 4.35688896524563 -2.47647748e-06 -3.79273572119407 4.54157996e-06 8.1025409833971" Properties=species:S:1:pos:R:3:forces:R:3 pbc="T T T"
C        1.93539109       2.97084993       0.77638694      -0.00038387      -0.00007405       0.00012598
C        0.03475369       1.38605797       6.95550704       0.00038387       0.00007405      -0.00012598
C        1.93112620       0.79241274       2.90423341       0.00003420      -0.00036535       0.00025711
C        0.03901858       3.56449508       4.82766057      -0.00003420       0.00036535      -0.00025711
C        1.87768695      -0.57850037      -0.25983773       0.00013113       0.00033733      -0.00008202
C        0.09245808       4.93540819       7.99173155      -0.00013113      -0.00033733       0.00008202
C        1.98883509       1.59995219       3.94046328      -0.00012058       0.00024683      -0.00005579
C       -0.01869025       2.75695563       3.79143093       0.00012058      -0.00024683       0.00005579
C        1.10466594       0.60657602      -0.16976010      -0.00003240      -0.00004319       0.00008510
C        0.86547914       3.75033181       7.90165416       0.00003240       0.00004319      -0.00008510
C        2.76184941       2.78502886       3.85037817       0.00004397       0.00042912       0.00074511
C       -0.79170429       1.57187896       3.88151579      -0.00004397      -0.00042912      -0.00074511
N       -2.86742698       1.39250090       6.92162920      -0.00045843       0.00008819      -0.00000129
N        4.83757216       2.96440692       0.81026464       0.00045843      -0.00008819       0.00000129
N        2.94120679       3.57096281       4.86153519      -0.00000077      -0.00067851      -0.00020132
N       -0.97106166       0.78594502       2.87035877       0.00000077       0.00067851       0.00020132
O        0.57958283       0.90577343       0.93189716      -0.00016661       0.00015015      -0.00034941
O        1.39056201       3.45113426       6.79999670       0.00016661      -0.00015015       0.00034941
O        3.28692934       3.08422888       2.74872972       0.00032165       0.00015581      -0.00007405
O       -1.31678456       1.27267908       4.98316426      -0.00032165      -0.00015581       0.00007405
H        1.41256390       3.18720521       1.67371780       0.00022060      -0.00017843      -0.00012984
H        0.55758129       1.16970261       6.05817604      -0.00022060       0.00017843       0.00012984
H        2.45394794       1.00876332       2.00690727      -0.00006762      -0.00010207      -0.00011261
H       -0.48380281       3.34814450       5.72498669       0.00006762       0.00010207       0.00011261
H        2.52029831       2.08931567       0.73636838       0.00018718      -0.00011133      -0.00005296
H       -0.55015321       2.26759215       6.99552564      -0.00018718       0.00011133       0.00005296
H        1.34621992      -0.08913036       2.94425624      -0.00003265       0.00012418       0.00004294
H        0.62392520       4.44603818       4.78763772       0.00003265      -0.00012418      -0.00004294
H       -1.52283258      -0.82371368       6.87784754       0.00000540      -0.00008150      -0.00001671
H        3.49297762       5.18062140       0.85404624      -0.00000540       0.00008150       0.00001671
H        1.59662125       1.35473578       4.90531902      -0.00002494      -0.00010567       0.00004217
H        0.37352359       3.00217217       2.82657519       0.00002494       0.00010567      -0.00004217
H       -3.46781976       2.20886182       7.10420998       0.00019412      -0.00022729      -0.00017046
H        5.43796466       2.14804600       0.62768411      -0.00019412       0.00022729       0.00017046
H        3.54158877       4.38731828       4.67895388      -0.00003728      -0.00000617       0.00009590
H       -1.57144382      -0.03041046       3.05294009       0.00003728       0.00000617      -0.00009590
H       -2.21938419       1.41587809       6.13706724       0.00006762      -0.00022549      -0.00021057
H        4.18952943       2.94102973       1.59482648      -0.00006762       0.00022549       0.00021057
H        2.29315792       3.59433290       5.64609898       0.00007456      -0.00018975       0.00004371
H       -0.32301291       0.76257492       2.08579522      -0.00007456       0.00018975      -0.00004371
