40
Lattice="5.30049179948858 0.02410912182483 -1.20454354324823 0.01255456890878 5.3252768253085 -0.02737075480113 -4.41422660892786 -0.05865573957383 7.7789806344808" Properties=species:S:1:pos:R:3:forces:R:3 pbc="T T T"
C        1.13055694       4.34358261       1.08038263       0.00012316      -0.00004139       0.00016455
C       -0.22398680       0.95079059       5.41041019      -0.00004011       0.00009616      -0.00004499
C        1.47884745       1.55865715       2.16203244       0.00001286       0.00014115      -0.00007225
C       -0.65829611       3.67561496       4.46039051       0.00002777      -0.00009410       0.00006145
C        1.49430493      -0.18060446       0.00112241      -0.00011673      -0.00012238      -0.00006325
C       -0.53677345       5.50855217       6.53737363       0.00003548       0.00007739       0.00000051
C        1.20304820       2.50110396       3.24479479      -0.00005142       0.00001517      -0.00005888
C       -0.36193048       2.79932768       3.31664259      -0.00003317      -0.00005271       0.00007713
C        1.26579478       1.13126676      -0.02429271      -0.00011699      -0.00018563       0.00022549
C       -0.32034150       4.19666937       6.57558190       0.00012264       0.00017663      -0.00007225
C        1.98242196       3.67445724       3.09228742      -0.00008922      -0.00008150      -0.00012084
C       -1.18586892       1.64150170       3.40659025       0.00002468      -0.00003188      -0.00007045
N       -2.78148440       1.97852199       6.86574027       0.00014218       0.00005528      -0.00032036
N        3.69334994       3.31705104      -0.35439970      -0.00002751      -0.00011930       0.00031573
N        1.96569387       4.72988375       3.90096853      -0.00005451       0.00013190       0.00007790
N       -0.97826634       0.50955507       2.66058120       0.00010901      -0.00008099       0.00002623
O        0.60171204       1.67512866       1.03237711       0.00001954      -0.00006505       0.00005219
O        0.33432562       3.65980607       5.50110630      -0.00006762       0.00002237       0.00001851
O        2.35885971       4.00232885       1.82619201      -0.00004937       0.00011904      -0.00000926
O       -1.47390963       1.25043173       4.71726892       0.00012521      -0.00002494      -0.00003188
H        0.44061315       4.78677941       1.78700705       0.00012547       0.00006248       0.00002751
H        0.43466225       0.47978561       4.69127004       0.00002803      -0.00017124      -0.00002725
H        2.51853748       1.75781931       1.81603243      -0.00001311      -0.00002391      -0.00009153
H       -1.58361213       3.35222568       4.92240739       0.00011570      -0.00013987       0.00004397
H        0.73133276       3.39357254       0.79753109       0.00001774      -0.00002211       0.00000463
H        0.19260615       1.90468656       5.66301555      -0.00004705      -0.00010464      -0.00003497
H        1.38418385       0.57145852       2.56189952       0.00000540       0.00006273       0.00016712
H       -0.74921747       4.68025281       4.09921907      -0.00016506       0.00001568      -0.00005374
H       -2.36385770      -0.70138028       7.00224500      -0.00001106       0.00010979       0.00005965
H        3.34274127       6.06190067      -0.46928123      -0.00002803       0.00004962      -0.00006351
H        1.40030752       2.00475458       4.17732266       0.00008767       0.00001003       0.00008048
H       -0.52331401       3.35914283       2.41424028      -0.00009333       0.00012624      -0.00013395
H       -3.17822149       2.89643279       6.94541016       0.00001260      -0.00005656      -0.00009256
H        4.19694825       2.44567429      -0.38191711      -0.00012341       0.00005296       0.00000257
H        2.74184104       5.39438102       3.79242704       0.00001131      -0.00005476       0.00007508
H       -1.81440703      -0.07707313       2.64028022      -0.00001003      -0.00011801      -0.00008125
H       -2.25354203       1.76826264       6.01958556      -0.00005939       0.00019849      -0.00009436
H        3.17655991       3.49787334       0.50099861      -0.00003625       0.00006222       0.00008870
H        1.58616403       4.57610897       4.82757520       0.00001131       0.00001517      -0.00003291
H       -0.65445485       0.72578226       1.72835385       0.00007585      -0.00000926       0.00000026
