40
Lattice="5.21071913814084 0.04628986066367 -1.21474471417411 0.03435152875041 5.24531372088949 -0.03050300677838 -4.37309886122668 -0.08092096141206 7.69760331507206" Properties=species:S:1:pos:R:3:forces:R:3 pbc="T T T"
C        1.12915879       4.26610508       1.07448935       0.00010156       0.00004654       0.00008022
C       -0.25566970       0.94674906       5.34543633      -0.00000334       0.00022420       0.00003522
C        1.46397114       1.54227664       2.08914002       0.00007842       0.00002777      -0.00012238
C       -0.63532729       3.63525140       4.40347360      -0.00002417       0.00005039       0.00010773
C        1.46241574      -0.20099036      -0.01462593      -0.00009205       0.00001877       0.00000566
C       -0.55972136       5.43419260       6.46301446      -0.00004731       0.00002031       0.00000154
C        1.18124928       2.44293978       3.19766661      -0.00000463      -0.00001723      -0.00000000
C       -0.33784067       2.76917868       3.26345688      -0.00004319      -0.00007045       0.00000951
C        1.23260986       1.10516947      -0.05276871       0.00007173      -0.00032165       0.00008253
C       -0.33513414       4.12817201       6.50916996      -0.00006813       0.00018692      -0.00005245
C        1.98790589       3.60869611       3.07590099      -0.00003677      -0.00004448      -0.00018203
C       -1.17758697       1.61859039       3.34524308      -0.00002005      -0.00002365       0.00001877
N       -2.74703138       1.94953578       6.79603757      -0.00001440       0.00016018      -0.00015427
N        3.63150778       3.26839948      -0.35809326      -0.00000489      -0.00010696       0.00023320
N        1.89146887       4.69691052       3.83801596      -0.00003985       0.00011750       0.00010747
N       -0.96139461       0.48490198       2.62750907       0.00008048      -0.00005759      -0.00006531
O        0.55313599       1.63208648       0.99973985       0.00013935      -0.00004268       0.00002854
O        0.33730257       3.60420065       5.44549070      -0.00012316       0.00002211       0.00005759
O        2.35554696       3.94409280       1.80398854      -0.00006453       0.00005759       0.00000257
O       -1.49286768       1.24644120       4.64679817       0.00011236      -0.00006556      -0.00002005
H        0.44931016       4.71467806       1.78322260       0.00003625      -0.00003548      -0.00009822
H        0.40505856       0.47950464       4.63036312       0.00008845      -0.00007842       0.00001928
H        2.48382399       1.79370220       1.71648462       0.00004808      -0.00007559      -0.00016044
H       -1.57990694       3.31729330       4.84301860       0.00004242      -0.00000180       0.00011441
H        0.73101709       3.31695576       0.80302169      -0.00004191      -0.00011441      -0.00010362
H        0.15661726       1.89692444       5.59845375      -0.00003805      -0.00003651       0.00007636
H        1.44292565       0.54548459       2.46405192      -0.00012907       0.00001697       0.00006788
H       -0.71474299       4.63839087       4.04914636       0.00004397      -0.00007610       0.00000180
H       -2.35437168      -0.75770203       6.91963401       0.00003471       0.00005194      -0.00009744
H        3.27130528       6.00876540      -0.47226682      -0.00002982       0.00000000       0.00007019
H        1.37062853       1.90490658       4.10435927       0.00011287       0.00004911      -0.00008330
H       -0.50330218       3.34033554       2.37269171      -0.00016481       0.00010387       0.00006968
H       -3.21246566       2.83695417       6.84984006      -0.00003600      -0.00006633      -0.00013138
H        4.13553451       2.39949294      -0.39402999       0.00002931       0.00002982       0.00007122
H        2.68016319       5.34638754       3.74769392      -0.00000026      -0.00004397       0.00000797
H       -1.78532819      -0.11918323       2.63856972      -0.00003805      -0.00009822       0.00005554
H       -2.22792930       1.75955170       5.94298419       0.00000540       0.00012341      -0.00019849
H        3.11172355       3.43636233       0.49671766      -0.00002185       0.00003445       0.00015452
H        1.54194689       4.53809267       4.77282008      -0.00001183       0.00004397      -0.00004191
H       -0.64950466       0.68165237       1.68841779       0.00007251      -0.00000823       0.00003162
