40
Lattice="5.22688622602337 0.04310049368685 -1.21262914518948 0.03140033777186 5.25991126878343 -0.02922195278768 -4.37995683517685 -0.07667313344292 7.71291012496084" Properties=species:S:1:pos:R:3:forces:R:3 pbc="T T T"
C        1.13020717       4.28077459       1.07592038       0.00006119      -0.00004911      -0.00016944
C       -0.24967749       0.94809018       5.35805432      -0.00020672      -0.00010747       0.00016789
C        1.46678629       1.54569274       2.10199876      -0.00005862      -0.00018975      -0.00013113
C       -0.63826348       3.64287588       4.41569398       0.00002957       0.00015092       0.00018435
C        1.46769826      -0.19681896      -0.01226119       0.00001903       0.00024220      -0.00007996
C       -0.55389962       5.44859367       6.47843274       0.00000926      -0.00014604      -0.00008536
C        1.18544280       2.45362283       3.20649883      -0.00003188       0.00011801       0.00002854
C       -0.34063754       2.77537111       3.27439292       0.00006094       0.00000309      -0.00005219
C        1.23858868       1.11053465      -0.04781900       0.00009847      -0.00016378      -0.00018718
C       -0.33096166       4.14142258       6.52314434      -0.00001877       0.00015864       0.00012547
C        1.98778606       3.62119867       3.07895806       0.00006351      -0.00023397      -0.00024503
C       -1.17948610       1.62397565       3.35699176      -0.00001054       0.00010850       0.00014784
N       -2.75154205       1.95618085       6.80989593      -0.00001183       0.00022137       0.00004782
N        3.64353135       3.27762252      -0.35629442       0.00015915      -0.00012830       0.00001517
N        1.90650177       4.70324279       3.85030279      -0.00007328       0.00013884       0.00006993
N       -0.96313018       0.48999757       2.63474747       0.00015555      -0.00003548       0.00003702
O        0.56154858       1.64039538       1.00548917      -0.00004628      -0.00001311       0.00002674
O        0.33850453       3.61521546       5.45723907       0.00003908       0.00014630      -0.00002700
O        2.35729722       3.95541868       1.80850670      -0.00012341      -0.00010233      -0.00014244
O       -1.48935178       1.24768674       4.66059670       0.00007945       0.00002597       0.00006968
H        0.44840311       4.72812476       1.78436960       0.00006788      -0.00003702       0.00004037
H        0.41052060       0.47996899       4.64217606      -0.00005219       0.00004062       0.00004679
H        2.49117751       1.78821286       1.73476960      -0.00028565      -0.00005271      -0.00033013
H       -1.57840751       3.32313650       4.85968865       0.00028694      -0.00005219       0.00034890
H        0.73238518       3.33121099       0.80257126      -0.00005091       0.00001208       0.00000591
H        0.16350208       1.89902262       5.61069740       0.00003111      -0.00000874      -0.00002314
H        1.43240410       0.55017365       2.48142539      -0.00017869       0.00002905       0.00002057
H       -0.72057301       4.64641559       4.06044757       0.00013730       0.00008665       0.00005271
H       -2.35570242      -0.74691119       6.93485476      -0.00002185      -0.00008536      -0.00021623
H        3.28543477       6.01923665      -0.47024785      -0.00000951       0.00007996       0.00030750
H        1.37791231       1.92221613       4.11729001      -0.00007713       0.00014835       0.00001851
H       -0.50637043       3.34538874       2.38209353      -0.00000771      -0.00006685       0.00007071
H       -3.20895547       2.84763427       6.86616939      -0.00022266      -0.00002057       0.00001825
H        4.14837084       2.40871671      -0.39023988      -0.00001646       0.00000771      -0.00004602
H        2.69235053       5.35641523       3.75599400      -0.00006942      -0.00005605       0.00003085
H       -1.78917921      -0.11132609       2.63958768       0.00024348      -0.00004911      -0.00012933
H       -2.23168385       1.76209156       5.95752877       0.00005374      -0.00006916      -0.00022780
H        3.12370470       3.44742620       0.49843397      -0.00011030      -0.00003471       0.00023063
H        1.55090194       4.54580616       4.78361135       0.00002365      -0.00000566      -0.00000309
H       -0.64964077       0.69046314       1.69668859       0.00006531      -0.00001003      -0.00001646
