40
Lattice="5.12705530574871 0.05690180058657 -1.22749844008145 0.04248123269135 5.16642658046265 -0.04243181269171 -4.34117682345861 -0.10467290523949 7.61403137167926" Properties=species:S:1:pos:R:3:forces:R:3 pbc="T T T"
C        1.11826666       4.18338462       1.05834172      -0.00006659       0.00014450      -0.00020800
C       -0.28955279       0.93607947       5.26666610       0.00002751      -0.00010593       0.00010104
C        1.43809011       1.51294168       2.03233186       0.00025480       0.00000206       0.00006865
C       -0.63554335       3.58571196       4.33432103      -0.00021289       0.00010696      -0.00015735
C        1.44421318      -0.22217270      -0.02378730       0.00009873       0.00012316       0.00008330
C       -0.59777271       5.35497890       6.36680916      -0.00025120      -0.00013575       0.00001183
C        1.15000714       2.38488881       3.15067238       0.00004268       0.00006248       0.00000411
C       -0.33734080       2.73189423       3.19915179       0.00005014      -0.00003034       0.00005836
C        1.20533059       1.07637438      -0.07610255       0.00023294       0.00036433       0.00002648
C       -0.36188454       4.05635793       6.42348082      -0.00026997      -0.00026534       0.00002571
C        1.97035739       3.54201446       3.05309892      -0.00001646       0.00000797       0.00022111
C       -1.18004898       1.58648814       3.27136357       0.00011956      -0.00011570      -0.00010593
N       -2.73135255       1.90737925       6.71507179      -0.00001363      -0.00021057       0.00006042
N        3.56819047       3.21736895      -0.37759921       0.00001260       0.00018332      -0.00009153
N        1.81659247       4.65301999       3.77055435       0.00009976      -0.00003445       0.00004294
N       -0.95032257       0.44888351       2.58458642      -0.00025762       0.00006171       0.00005939
O        0.51351474       1.58839731       0.96951451      -0.00002237       0.00002854       0.00001877
O        0.32390418       3.54501529       5.37066488       0.00007919      -0.00008073      -0.00016275
O        2.33692094       3.87385917       1.77692877      -0.00001723       0.00020466       0.00020055
O       -1.51451947       1.23339372       4.56710752      -0.00004242      -0.00018589      -0.00018846
H        0.44510196       4.63612310       1.76607479       0.00011827      -0.00007688       0.00008947
H        0.37090065       0.47058918       4.55501960       0.00001028       0.00008099      -0.00002443
H        2.44483822       1.79517614       1.63997167       0.00024117       0.00022729      -0.00008022
H       -1.59332955       3.26738356       4.76340059      -0.00019515      -0.00017304      -0.00003702
H        0.71890018       3.23812218       0.79191707      -0.00011261      -0.00002365       0.00014501
H        0.12056585       1.88139647       5.52075346       0.00015607      -0.00014090      -0.00006788
H        1.46356876       0.51449005       2.38916956       0.00007816      -0.00014912      -0.00002314
H       -0.71494937       4.58615542       3.98761919      -0.00001646       0.00021314      -0.00002905
H       -2.34119015      -0.81142759       6.83863378       0.00005039       0.00001337      -0.00003445
H        3.19699926       5.95476552      -0.49525150       0.00000617      -0.00010387      -0.00011956
H        1.32069748       1.82326832       4.04144518       0.00011570      -0.00009385      -0.00012444
H       -0.49242154       3.31134566       2.31719487      -0.00018152       0.00009719       0.00011210
H       -3.21776723       2.78268542       6.76622143       0.00011699      -0.00004808       0.00007148
H        4.07182472       2.35048929      -0.42162931      -0.00016558       0.00010747      -0.00004165
H        2.61344098       5.28911994       3.68687153       0.00005991      -0.00001594       0.00001131
H       -1.76835699      -0.16041903       2.61796955      -0.00013087      -0.00005142       0.00004937
H       -2.21343716       1.73723222       5.86092942       0.00010799      -0.00008510      -0.00004757
H        3.04903725       3.37311367       0.47718779      -0.00008485       0.00008433       0.00007328
H        1.49288203       4.49517891       4.71199687       0.00003908       0.00003060      -0.00001003
H       -0.65109640       0.63008336       1.64022894      -0.00006094      -0.00001748       0.00001851
