40
Lattice="5.26219412176684 0.03460691974856 -1.20867766321819 0.02309367183221 5.29065768256003 -0.02786519979754 -4.39615300405918 -0.06794241350636 7.74522809172603" Properties=species:S:1:pos:R:3:forces:R:3 pbc="T T T"
C        1.13112262       4.31064864       1.07763889       0.00003445       0.00020235       0.00003959
C       -0.23739455       0.94989425       5.38312176      -0.00007533       0.00006711      -0.00011981
C        1.47152930       1.55104876       2.13150359      -0.00012238       0.00007610      -0.00022137
C       -0.64777910       3.65781180       4.43939414       0.00003060       0.00009693       0.00018872
C        1.48090902      -0.18844270      -0.00631523       0.00012393      -0.00024348      -0.00006916
C       -0.54417797       5.47794605       6.50801572       0.00004037      -0.00040058       0.00029233
C        1.19320285       2.47618660       3.22524121       0.00002211       0.00000206       0.00001954
C       -0.35020435       2.78724392       3.29578657       0.00006196       0.00007765      -0.00009693
C        1.25205414       1.12113275      -0.03669994      -0.00019875       0.00029979       0.00008073
C       -0.32425174       4.16853406       6.54993552       0.00012830       0.00058595      -0.00023114
C        1.98451069       3.64711048       3.08482867       0.00005322      -0.00011647      -0.00000797
C       -1.18437893       1.63358052       3.38040829       0.00004165       0.00013524       0.00017612
N       -2.76442290       1.96800888       6.83766835       0.00026894       0.00016147      -0.00005116
N        3.66879581       3.29643326      -0.35491238      -0.00004011      -0.00039904       0.00025197
N        1.93777694       4.71495540       3.87577201       0.00011467       0.00011159      -0.00014810
N       -0.96853428       0.49918771       2.64818316       0.00010901      -0.00010233       0.00001440
O        0.58076707       1.65744996       1.01811846      -0.00000694      -0.00009307      -0.00004988
O        0.33826845       3.63758506       5.47935490       0.00000900       0.00006608      -0.00008767
O        2.35882106       3.97743705       1.81742078      -0.00005296      -0.00010490      -0.00022651
O       -1.48230780       1.24898134       4.68844104      -0.00001311       0.00009616       0.00001363
H        0.44478292       4.75544831       1.78499208       0.00010027      -0.00001517       0.00009102
H        0.42160504       0.47980936       4.66558344      -0.00011339       0.00002905       0.00003600
H        2.50537557       1.77193880       1.77607222      -0.00025814      -0.00013884      -0.00018743
H       -1.57828019       3.33407248       4.89392229       0.00012804       0.00002314       0.00031085
H        0.73339156       3.36067322       0.79959600      -0.00005348       0.00003085       0.00002468
H        0.17782178       1.90231710       5.63510282      -0.00000257      -0.00010670      -0.00006531
H        1.40540927       0.55952956       2.52145087      -0.00006968      -0.00004037      -0.00004859
H       -0.73681707       4.66198755       4.08203781      -0.00007765      -0.00004371       0.00020260
H       -2.35835645      -0.72427835       6.96758522      -0.00008767      -0.00001980      -0.00010516
H        3.31448930       6.04079557      -0.46917497       0.00015427      -0.00003471       0.00019849
H        1.38993544       1.96147550       4.14628677      -0.00016944       0.00016866       0.00001903
H       -0.51431083       3.35396073       2.39952643       0.00004757      -0.00013164       0.00003857
H       -3.19756671       2.87076930       6.90288818      -0.00026919       0.00009693       0.00005939
H        4.17502832       2.42736576      -0.38477222      -0.00020672      -0.00011056      -0.00018820
H        2.71728881       5.37566794       3.77216242      -0.00000154       0.00001723      -0.00003780
H       -1.79970086      -0.09480545       2.63916263       0.00031367       0.00003394      -0.00014630
H       -2.24170586       1.76545398       5.98763299      -0.00010027      -0.00012290       0.00003420
H        3.14947270       3.47041892       0.49977398      -0.00006711      -0.00011390      -0.00005065
H        1.56890760       4.56079728       4.80561367      -0.00003754      -0.00008073       0.00014372
H       -0.65117645       0.70792925       1.71268539       0.00024271       0.00004088      -0.00009642
