40
Lattice="5.15291872956079 0.05433669160521 -1.22360358910975 0.04087462470302 5.19122513328248 -0.03795619172422 -4.35089073738803 -0.09692889629575 7.64090696548399" Properties=species:S:1:pos:R:3:forces:R:3 pbc="T T T"
C        1.12222954       4.20986505       1.06487766       0.00006531       0.00011673      -0.00011596
C       -0.27880145       0.93987029       5.29307394      -0.00025660      -0.00007096       0.00011981
C        1.44789855       1.52383318       2.04860612      -0.00011493      -0.00012830      -0.00011776
C       -0.63354844       3.60257575       4.35630853       0.00004885       0.00022934       0.00013833
C        1.44845918      -0.21585510      -0.02128560       0.00006145       0.00016841      -0.00014630
C       -0.58537234       5.37999018       6.39894230      -0.00005554      -0.00005451       0.00013267
C        1.16098561       2.40331981       3.16548981       0.00002391       0.00002494       0.00001234
C       -0.33582437       2.74411935       3.22005943       0.00006222       0.00004037      -0.00002057
C        1.21327797       1.08528433      -0.06916646      -0.00003805      -0.00012444      -0.00000900
C       -0.35354010       4.07882655       6.45189030       0.00008767       0.00018152       0.00008613
C        1.97824733       3.56287380       3.06151267      -0.00003805      -0.00010670      -0.00009873
C       -1.17729526       1.59681386       3.29624424       0.00005451       0.00005245       0.00015735
N       -2.73559507       1.92139161       6.74163016       0.00008922       0.00015658      -0.00008150
N        3.58765458       3.23344314      -0.37026170      -0.00010490      -0.00008999       0.00011750
N        1.83885333       4.66822650       3.79231724      -0.00003780       0.00006222       0.00000129
N       -0.95475017       0.46148149       2.59823689       0.00009179      -0.00004114      -0.00006042
O        0.52535698       1.60196038       0.97900717      -0.00004782      -0.00013164      -0.00002623
O        0.32840661       3.56330644       5.39592561       0.00011878       0.00015992      -0.00007790
O        2.34384027       3.89732835       1.78605931      -0.00013113      -0.00005991      -0.00015838
O       -1.50742866       1.23836678       4.59290398       0.00004962      -0.00000668       0.00007122
H        0.44749632       4.66179506       1.77317634       0.00008742      -0.00015041      -0.00008305
H        0.38234170       0.47431496       4.58056798      -0.00007996       0.00013010       0.00007276
H        2.45674640       1.79897313       1.66108113      -0.00025660      -0.00003394      -0.00017458
H       -1.58916085       3.28602848       4.78622360       0.00020980      -0.00006891       0.00022780
H        0.72304081       3.26316038       0.79763207      -0.00002108      -0.00000900      -0.00001671
H        0.13156232       1.88681416       5.54710364      -0.00000951      -0.00007302      -0.00007302
H        1.46236711       0.52525385       2.41023015      -0.00014758      -0.00005965       0.00009102
H       -0.71019597       4.60394189       4.00670178       0.00014578       0.00004885      -0.00003008
H       -2.34645032      -0.79516343       6.86464541       0.00000437      -0.00015427      -0.00010439
H        3.21966533       5.97106987      -0.48693866       0.00005759       0.00008999       0.00005759
H        1.33749028       1.84748614       4.06048933      -0.00007919       0.00014295       0.00005451
H       -0.49535151       3.32047874       2.33511384       0.00005425      -0.00011724       0.00003497
H       -3.21759557       2.79953676       6.79260390      -0.00013833      -0.00004139       0.00001260
H        4.09052307       2.36546179      -0.41222434       0.00007096       0.00007276       0.00004911
H        2.63429723       5.30735475       3.70898652      -0.00004988       0.00006891       0.00006068
H       -1.77381671      -0.14754686       2.62653704       0.00015992      -0.00010953      -0.00010284
H       -2.21753781       1.74546387       5.88754913       0.00004268      -0.00004397      -0.00018203
H        3.06840084       3.39366823       0.48464324       0.00000746      -0.00005014       0.00015478
H        1.50807293       4.50853976       4.73181679      -0.00001620      -0.00002982       0.00005708
H       -0.65061777       0.64696285       1.65559950       0.00002957       0.00000977      -0.00003008
