40
Lattice="5.36340341303149 0.00432640396857 -1.19428299832278 -0.00729212094702 5.3882182148512 -0.02625405580925 -4.44014615773954 -0.04096252570238 7.82853520512075" Properties=species:S:1:pos:R:3:forces:R:3 pbc="T T T"
C        1.12528699       4.40390967       1.08796785       0.00005734       0.00000026       0.00012341
C       -0.19824509       0.95116330       5.45702181      -0.00005708       0.00002443      -0.00010027
C        1.49877184       1.57889298       2.20671317      -0.00009770       0.00002468      -0.00013473
C       -0.67324941       3.71120562       4.48737273       0.00003137      -0.00002185       0.00012830
C        1.51063972      -0.16822784       0.01409097       0.00007636       0.00009436       0.00004268
C       -0.52605422       5.56061525       6.58392279      -0.00014810       0.00001903      -0.00009822
C        1.22665074       2.54499553       3.27526661      -0.00008459       0.00005631       0.00001234
C       -0.38050066       2.81972134       3.34868501      -0.00004294      -0.00002803      -0.00002648
C        1.28579861       1.14768269      -0.00330741      -0.00005091      -0.00025685       0.00014630
C       -0.31786796       4.24416416       6.61364500       0.00005219      -0.00001337      -0.00012161
C        1.98509359       3.72181800       3.10628785      -0.00012958      -0.00014192      -0.00020337
C       -1.17773920       1.65186189       3.45352938      -0.00019000       0.00013421       0.00006968
N       -2.81353664       1.99545006       6.90320140       0.00013370       0.00013704      -0.00020440
N        3.72568894       3.35366642      -0.34838034       0.00001877      -0.00014090      -0.00004397
N        1.99879489       4.76342008       3.93838992      -0.00000823       0.00031419       0.00009333
N       -0.99806244       0.53086253       2.67886642      -0.00008073      -0.00010696       0.00007328
O        0.63628829       1.70597645       1.05681457      -0.00004705      -0.00007199       0.00000129
O        0.32216154       3.69495869       5.53519174      -0.00000437      -0.00001568      -0.00005451
O        2.35635632       4.05263670       1.83873728      -0.00008999      -0.00002674      -0.00000103
O       -1.45547589       1.25360542       4.76357673       0.00010130       0.00010104       0.00006042
H        0.43261576       4.84611405       1.79553949      -0.00002057      -0.00006273       0.00007276
H        0.46181496       0.48159289       4.73525277      -0.00001877      -0.00013164       0.00015915
H        2.54090706       1.74859409       1.86934102      -0.00006196       0.00002545       0.00004962
H       -1.60096642       3.39896436       4.95241482       0.00007045       0.00004782       0.00007585
H        0.72201377       3.45379236       0.79796035      -0.00004191       0.00012830      -0.00010079
H        0.21819665       1.90763419       5.71314402      -0.00003368      -0.00002057       0.00005579
H        1.37391097       0.59653378       2.61877130       0.00027305       0.00002803      -0.00004268
H       -0.75539200       4.71619733       4.11622279      -0.00012907      -0.00010362      -0.00000874
H       -2.37642691      -0.66130998       7.05285576      -0.00002905       0.00003548       0.00009436
H        3.38335075       6.09272317      -0.46380938       0.00013550      -0.00003702      -0.00009282
H        1.41886290       2.07907255       4.22703538       0.00001928      -0.00008562      -0.00008279
H       -0.53588710       3.36033366       2.43207428       0.00015298      -0.00003754      -0.00000206
H       -3.10957658       2.94553300       7.02375908       0.00006582       0.00008150       0.00007868
H        4.21379385       2.47281480      -0.37805090       0.00014990      -0.00004602      -0.00002134
H        2.77750556       5.42531810       3.83424978      -0.00007353       0.00006119       0.00009282
H       -1.84101827      -0.04608452       2.64826529       0.00004679       0.00002957      -0.00010799
H       -2.26770656       1.77387486       6.06965663      -0.00007610      -0.00004422       0.00005836
H        3.22041416       3.55208081       0.51160498       0.00011647      -0.00000386      -0.00011750
H        1.61138831       4.59948417       4.86124842       0.00002263      -0.00008150       0.00006839
H       -0.66120912       0.75717830       1.75248947      -0.00000797       0.00013498       0.00000823
