40
Lattice="5.09081912201199 0.05975519356584 -1.23293959804192 0.04387035868125 5.1319291717133 -0.04916227564281 -4.32779425755584 -0.11549171616088 7.57523735196112" Properties=species:S:1:pos:R:3:forces:R:3 pbc="T T T"
C        1.11196523       4.14639082       1.04849238      -0.00010696      -0.00020595      -0.00001620
C       -0.30487410       0.93022595       5.22755009      -0.00020954       0.00001414       0.00053582
C        1.42307390       1.49702765       2.01031621      -0.00003188      -0.00040803       0.00001723
C       -0.64000490       3.56108707       4.30271007       0.00009616       0.00048645      -0.00003677
C        1.43926365      -0.23049061      -0.02656606       0.00002468       0.00012984      -0.00006351
C       -0.61613919       5.31971951       6.31929767       0.00014964       0.00001234      -0.00050394
C        1.13352105       2.35901822       3.12967430      -0.00002571       0.00029388      -0.00011621
C       -0.34075458       2.71451511       3.16882943       0.00015401      -0.00008922      -0.00011184
C        1.19452051       1.06418878      -0.08533048       0.00020492       0.00021289      -0.00039724
C       -0.37404640       4.02493510       6.38170280      -0.00026945      -0.00028848       0.00043195
C        1.95739756       3.51306515       3.04066035      -0.00006788      -0.00015324       0.00019283
C       -1.18551128       1.57195790       3.23446892       0.00002391      -0.00018461      -0.00028436
N       -2.72588898       1.88742888       6.67656702      -0.00015504      -0.00066360       0.00022729
N        3.54070674       3.19488879      -0.38880470       0.00034376       0.00031290      -0.00034067
N        1.78568908       4.63113881       3.73921287       0.00006505      -0.00005168      -0.00021700
N       -0.94343449       0.43036732       2.56520069      -0.00048748       0.00015658       0.00080167
O        0.49712574       1.56981308       0.95617530      -0.00013061       0.00010284       0.00014450
O        0.31692289       3.51945039       5.33335251       0.00011159      -0.00008408      -0.00011107
O        2.32605879       3.84025586       1.76381202       0.00017072       0.00001928       0.00000617
O       -1.52474383       1.22600289       4.52968503      -0.00004062       0.00001028      -0.00001491
H        0.44098734       4.60010838       1.75545388      -0.00006351      -0.00003985       0.00010439
H        0.35381708       0.46431378       4.51674934       0.00016069       0.00007019      -0.00009873
H        2.42852344       1.78774568       1.61154603       0.00003445      -0.00005219      -0.00000129
H       -1.59963546       3.23905171       4.73256511      -0.00002288       0.00024246      -0.00015787
H        0.71224937       3.20346836       0.78253105       0.00008665       0.00008613       0.00018718
H        0.10558234       1.87294002       5.48175702      -0.00007456       0.00003445       0.00005065
H        1.46259568       0.49908442       2.36051092       0.00007893       0.00013267      -0.00003497
H       -0.72580340       4.56019274       3.96084249       0.00031496      -0.00010644      -0.00016301
H       -2.33339983      -0.83330817       6.80142018       0.00000026      -0.00001980      -0.00027922
H        3.16545698       5.93206395      -0.50792056      -0.00025788       0.00000694       0.00046408
H        1.29601300       1.78997688       4.01469872       0.00013190      -0.00015375      -0.00011210
H       -0.48866725       3.29887080       2.29146680      -0.00008793      -0.00010567       0.00012316
H       -3.21682769       2.75949295       6.72850537      -0.00028076       0.00023628       0.00013447
H        4.04561521       2.32969806      -0.43540824       0.00006993      -0.00014064      -0.00013318
H        2.58398350       5.26343298       3.65321180      -0.00017175      -0.00005888       0.00004114
H       -1.76079636      -0.17811995       2.60455139       0.00028694       0.00016044       0.00005965
H       -2.20796335       1.72496972       5.82266565      -0.00010182       0.00012058      -0.00001748
H        3.02159843       3.34407380       0.46561157       0.00001286      -0.00008742       0.00014475
H        1.47158294       4.47747902       4.68342975      -0.00011750       0.00000334       0.00007713
H       -0.65208936       0.60543693       1.61827188       0.00018178       0.00004834      -0.00053273
