40
Lattice="5.38645393386401 -0.00372253697295 -1.18836556536577 -0.01541191688802 5.41318195566982 -0.02596232581137 -4.44706559668926 -0.03397811675313 7.84408771700775" Properties=species:S:1:pos:R:3:forces:R:3 pbc="T T T"
C        1.12175038       4.42824542       1.09161222       0.00001080      -0.00003548       0.00000926
C       -0.18660470       0.95054332       5.47481736      -0.00010516      -0.00004937      -0.00011287
C        1.50999069       1.58921343       2.22116526       0.00006556      -0.00014990      -0.00012907
C       -0.67844167       3.72549739       4.49497607      -0.00007508       0.00006248       0.00010619
C        1.51444456      -0.16336690       0.01920603       0.00007842       0.00009153       0.00002340
C       -0.52152299       5.58002273       6.60052239      -0.00000977      -0.00004499       0.00007430
C        1.24048334       2.56238746       3.28591704      -0.00011981       0.00001286      -0.00005014
C       -0.38820755       2.82672432       3.35984845       0.00004165      -0.00003702      -0.00010696
C        1.29200006       1.15394424       0.00471545      -0.00013447      -0.00021803       0.00014321
C       -0.31715315       4.26178459       6.62627358       0.00008253       0.00018461      -0.00017535
C        1.98803885       3.74083124       3.11158581       0.00001208      -0.00013010      -0.00020492
C       -1.16957777       1.65372377       3.47212239      -0.00007199       0.00002777       0.00004859
N       -2.82655715       2.00166888       6.91307808      -0.00010027       0.00022677      -0.00018409
N        3.73495021       3.36817324      -0.34351620       0.00002828      -0.00013550       0.00012007
N        2.00746869       4.77918107       3.95133348       0.00004448       0.00004988      -0.00005271
N       -1.00572278       0.53967551       2.68449759      -0.00007893      -0.00005091       0.00013678
O        0.64932174       1.71831749       1.06641360      -0.00001568      -0.00004602       0.00014732
O        0.31618474       3.70716051       5.54681097      -0.00006942      -0.00006299      -0.00009565
O        2.35453858       4.07519667       1.84247825      -0.00022060       0.00024657      -0.00006196
O       -1.44619859       1.25397053       4.77997362       0.00004679      -0.00012984      -0.00006299
H        0.42885895       4.87013645       1.80029384       0.00004114      -0.00001748       0.00001414
H        0.47483503       0.48234502       4.75233448       0.00008022       0.00014630      -0.00003085
H        2.55040756       1.74991463       1.88321355       0.00007688       0.00002083      -0.00002443
H       -1.60952640       3.42073406       4.95934823       0.00003342      -0.00007096       0.00010027
H        0.71700313       3.47803574       0.79873347      -0.00005194      -0.00006582       0.00001825
H        0.22864455       1.90822025       5.73276589       0.00000540      -0.00013987      -0.00007045
H        1.37939289       0.60772211       2.63679602       0.00006119      -0.00008073       0.00012187
H       -0.75389569       4.73035024       4.11898150       0.00010490       0.00005682      -0.00000926
H       -2.38124584      -0.64573864       7.06879266      -0.00015915      -0.00003342      -0.00004474
H        3.39615594       6.10278487      -0.45910263       0.00009385       0.00014115       0.00008330
H        1.42725542       2.10842010       4.24546193      -0.00002545       0.00007379      -0.00011544
H       -0.53866777       3.35683448       2.43606059       0.00022497       0.00011210       0.00003600
H       -3.06677431       2.96422533       7.05523971       0.00010362      -0.00014758       0.00002031
H        4.21314181       2.48181969      -0.37637268       0.00004139       0.00009153       0.00012881
H        2.79022155       5.43662023       3.85300146      -0.00004705      -0.00001131       0.00013575
H       -1.85084406      -0.03442865       2.65304324      -0.00007276      -0.00000103       0.00004217
H       -2.27073788       1.77463989       6.08713868       0.00009822       0.00005528      -0.00002828
H        3.23706146       3.57513250       0.51958751      -0.00004962      -0.00005219       0.00005605
H        1.62129481       4.60632925       4.87340529       0.00012007       0.00013035      -0.00002365
H       -0.66393767       0.76969787       1.76038848      -0.00008870      -0.00001903       0.00001800
