40
Lattice="4.96860598289994 0.06719831351176 -1.24677294294141 0.04608104566519 5.01848795253752 -0.07268922847187 -4.27954413890641 -0.1513700519002 7.4294311030205" Properties=species:S:1:pos:R:3:forces:R:3 pbc="T T T"
C        1.09422931       4.02478863       1.01794301       0.00024194       0.00061629      -0.00049597
C       -0.35740151       0.90893950       5.09195590      -0.00006479       0.00054713       0.00061681
C        1.37960448       1.45177884       1.92575225      -0.00017355       0.00013730      -0.00004911
C       -0.64343752       3.48154221       4.18498090       0.00003497      -0.00023217      -0.00055304
C        1.42117641      -0.26098132      -0.03691994       0.00037152      -0.00187228       0.00001774
C       -0.68400081       5.19509823       6.14724500       0.00051525      -0.00053119      -0.00064663
C        1.08152177       2.27367839       3.05112197      -0.00003702      -0.00023397      -0.00007790
C       -0.34505336       2.65992441       3.05931198      -0.00001851       0.00008613       0.00051088
C        1.15327184       1.01865707      -0.11962928      -0.00121382       0.00003754       0.00171030
C       -0.41610270       3.91544512       6.22998096      -0.00091068      -0.00062195       0.00151464
C        1.93042563       3.41412695       3.00347887      -0.00006685       0.00059572       0.00013730
C       -1.19446716       1.51979605       3.10635929       0.00030416      -0.00008845      -0.00009230
N       -2.70836975       1.81769536       6.53333068       0.00132232       0.00133954      -0.00267678
N        3.44540797       3.11625506      -0.42309257       0.00103204       0.00091557      -0.00201574
N        1.65799226       4.56261151       3.61099280      -0.00046280      -0.00034941      -0.00022034
N       -0.92022332       0.37087020       2.49964974       0.00016918      -0.00001671       0.00011493
O        0.44208968       1.50404649       0.91000714       0.00030056      -0.00043066      -0.00034170
O        0.29480454       3.43002564       5.20016201       0.00023757       0.00003780      -0.00002880
O        2.29420266       3.73104298       1.71554346      -0.00009359       0.00003317       0.00022497
O       -1.55751899       1.20250488       4.39476333       0.00001286      -0.00005476      -0.00000643
H        0.44066934       4.48642362       1.72806713       0.00000309      -0.00016172      -0.00013190
H        0.29577306       0.44695020       4.38170119       0.00014167       0.00004834       0.00011107
H        2.36791867       1.77509823       1.49182321      -0.00015478       0.00007636       0.00012238
H       -1.63048210       3.15752414       4.61941518       0.00008922       0.00003831      -0.00019772
H        0.68825096       3.09123734       0.75709630      -0.00005065      -0.00045534      -0.00020466
H        0.04892328       1.84248429       5.35245239      -0.00015298       0.00000566       0.00011416
H        1.49197685       0.45712649       2.24211376      -0.00000926      -0.00015607       0.00011184
H       -0.75672674       4.47616066       3.86875556       0.00017586       0.00015735      -0.00014810
H       -2.32031601      -0.91272292       6.65117541      -0.00056539       0.00034299       0.00019515
H        3.05778109       5.84704501      -0.54078675       0.00006736       0.00004679       0.00048954
H        1.21283123       1.67510638       3.91220006       0.00003034      -0.00021932       0.00005785
H       -0.47596050       3.25876721       2.19837207      -0.00005734       0.00030288      -0.00021752
H       -3.21687001       2.67685940       6.58664958      -0.00009719      -0.00022343       0.00013010
H        3.95413347       2.25721739      -0.47644549       0.00006299      -0.00002931       0.00010644
H        2.46427138       5.17901376       3.53479437       0.00008228       0.00007173      -0.00001337
H       -1.72689398      -0.24508203       2.57465045      -0.00004294      -0.00007353       0.00010799
H       -2.18835496       1.68799191       5.68203446      -0.00083895       0.00043992       0.00111509
H        2.92536815       3.24561810       0.42815179      -0.00025428      -0.00014912       0.00067054
H        1.38697820       4.42262563       4.56602566       0.00001800       0.00000077      -0.00032293
H       -0.64979518       0.51139955       1.54455071       0.00005271       0.00002211       0.00026148
