40
Lattice="5.18065844735925 0.05099279162951 -1.21923118714152 0.0383725217212 5.21745273009191 -0.03391473375359 -4.3612733833126 -0.08909232935269 7.66857209228299" Properties=species:S:1:pos:R:3:forces:R:3 pbc="T T T"
C        1.12604269       4.23742360       1.07030993       0.00016378      -0.00020389      -0.00008176
C       -0.26746063       0.94349341       5.31946647      -0.00013344      -0.00005939      -0.00004217
C        1.45668378       1.53375095       2.06717125       0.00006736      -0.00010490      -0.00010284
C       -0.63303588       3.61917545       4.37942166      -0.00002931       0.00005991       0.00013961
C        1.45432078      -0.20881123      -0.01836838      -0.00002700       0.00006685       0.00006788
C       -0.57241809       5.40637838       6.43119335      -0.00001723      -0.00011390      -0.00011081
C        1.17159114       2.42257290       3.18105459       0.00002365       0.00013087       0.00000231
C       -0.33557924       2.75657980       3.24156607      -0.00003934      -0.00005836      -0.00006633
C        1.22221408       1.09486860      -0.06152024       0.00016018      -0.00025942      -0.00004988
C       -0.34433338       4.10274188       6.48059676      -0.00019618       0.00029233       0.00006222
C        1.98453050       3.58500457       3.06910404       0.00000257      -0.00012341      -0.00011107
C       -1.17623379       1.60756336       3.32099082      -0.00003728       0.00002134       0.00008099
N       -2.74048675       1.93553848       6.76858545      -0.00008305       0.00009950      -0.00003831
N        3.60874945       3.25047846      -0.36352385       0.00000437       0.00004602       0.00014115
N        1.86371510       4.68300118       3.81463525      -0.00005914       0.00007868       0.00015067
N       -0.95825274       0.47359012       2.61270751      -0.00002083      -0.00011673      -0.00011930
O        0.53835361       1.61642959       0.98900656       0.00013395      -0.00001774       0.00006094
O        0.33321396       3.58305034       5.42100025      -0.00008947       0.00001980      -0.00003677
O        2.35030654       3.92082049       1.79502136      -0.00012444       0.00008999      -0.00003265
O       -1.50014155       1.24281477       4.61951036       0.00016455      -0.00007379       0.00000463
H        0.44915336       4.68795103       1.77901112      -0.00003368      -0.00000180      -0.00000694
H        0.39380022       0.47740139       4.60581898       0.00002803       0.00000540       0.00005682
H        2.46974022       1.79894503       1.68595968       0.00001106      -0.00003780      -0.00016044
H       -1.58434558       3.30291516       4.81268213       0.00005631      -0.00000514       0.00009410
H        0.72731324       3.28937695       0.80147358      -0.00001568       0.00002571      -0.00006685
H        0.14356164       1.89207907       5.57310273       0.00005296       0.00013575       0.00010670
H        1.45620839       0.53559589       2.43468712      -0.00013601       0.00006633       0.00002211
H       -0.70949953       4.62143915       4.02724418       0.00007765      -0.00001903      -0.00000874
H       -2.35085691      -0.77745815       6.89132920       0.00002571      -0.00000206      -0.00014141
H        3.24446238       5.98910802      -0.47886562      -0.00005425       0.00004628       0.00018306
H        1.35443276       1.87432185       4.08120673       0.00009127       0.00003214      -0.00004037
H       -0.49875096       3.33016934       2.35370776      -0.00013344       0.00003420       0.00010207
H       -3.21624695       2.81738575       6.82007662      -0.00001517      -0.00006685      -0.00008485
H        4.11183179       2.38187169      -0.40278351       0.00005811      -0.00003445       0.00005528
H        2.65655966       5.32650547       3.72933481       0.00001800       0.00000951      -0.00002288
H       -1.77917176      -0.13391860       2.63371929       0.00004294      -0.00007636       0.00005682
H       -2.22213916       1.75304772       5.91478833       0.00004757       0.00005528      -0.00019926
H        3.08926196       3.41471570       0.49140406      -0.00004294       0.00002597       0.00016481
H        1.52449541       4.52288233       4.75197267      -0.00001980       0.00006531      -0.00000951
H       -0.64992585       0.66414899       1.67178748       0.00007842      -0.00003162      -0.00001980
