40
Lattice="4.95186864402155 0.06728135951116 -1.24873443692716 0.04561553966857 5.00123225366289 -0.07530556445286 -4.2733662629513 -0.15469116387607 7.40810449417545" Properties=species:S:1:pos:R:3:forces:R:3 pbc="T T T"
C        1.09145825       4.00657407       1.01367683      -0.00011416      -0.00050908       0.00007688
C       -0.36560925       0.90667691       5.07058353      -0.00018640      -0.00104901      -0.00003677
C        1.37234014       1.44464222       1.91529377       0.00014475       0.00031136       0.00046820
C       -0.64671321       3.46847348       4.16921883       0.00022446      -0.00015632       0.00018692
C        1.42054127      -0.26451334      -0.03769095      -0.00050342       0.00143853       0.00020235
C       -0.69458105       5.17784090       6.12207716      -0.00089474       0.00264567       0.00048517
C        1.07328505       2.26151589       3.04051305      -0.00007945      -0.00017612      -0.00027254
C       -0.34756249       2.65169197       3.04392084       0.00010619       0.00020980      -0.00027279
C        1.14829826       1.01262560      -0.12394614       0.00120970       0.00020106      -0.00192884
C       -0.42238680       3.90073956       6.20838296       0.00153983      -0.00090914      -0.00182934
C        1.92288923       3.40057251       2.99861370      -0.00006968       0.00019438       0.00000103
C       -1.19729527       1.51271544       3.08563988       0.00004474      -0.00026174       0.00024040
N       -2.70655715       1.80936433       6.51188205      -0.00157737      -0.00108758       0.00284750
N        3.43248651       3.10397352      -0.42757128      -0.00127938      -0.00136011       0.00261661
N        1.64197607       4.55139288       3.59495685      -0.00046434      -0.00004294       0.00019258
N       -0.91588014       0.36177419       2.48952693       0.00072608       0.00012496      -0.00062863
O        0.43512681       1.49502805       0.90350515      -0.00023474      -0.00004088       0.00014707
O        0.29073029       3.41831390       5.18083218      -0.00054302       0.00052476       0.00042449
O        2.28882168       3.71437931       1.71053314       0.00006685       0.00009513      -0.00003651
O       -1.56302741       1.19880099       4.37385301       0.00007251      -0.00005811      -0.00010644
H        0.43981561       4.46926813       1.72372813       0.00007688      -0.00012521      -0.00037435
H        0.28590120       0.44384246       4.36048815      -0.00013987       0.00033296       0.00047488
H        2.36027317       1.77043498       1.47614453      -0.00012547       0.00016969       0.00015170
H       -1.63428129       3.14246130       4.60850732       0.00008536      -0.00008485      -0.00024117
H        0.68490835       3.07465624       0.75265410       0.00006968      -0.00016018      -0.00017149
H        0.04104289       1.83857478       5.33148528       0.00012470       0.00075128       0.00046306
H        1.49302051       0.45098166       2.22705803      -0.00003959      -0.00016249       0.00002417
H       -0.76769691       4.46212140       3.85751749       0.00014192       0.00026791      -0.00009230
H       -2.31780541      -0.92105875       6.62947806      -0.00013344      -0.00020235      -0.00049751
H        3.04384114       5.83450560      -0.54505937       0.00071348      -0.00052682      -0.00048774
H        1.19971841       1.65944647       3.89837329       0.00001311      -0.00027871       0.00000797
H       -0.47388438       3.25384524       2.18609815       0.00000668       0.00015864       0.00009976
H       -3.21679117       2.66693441       6.56568711      -0.00001080      -0.00005245      -0.00023731
H        3.94276676       2.24641977      -0.48133869       0.00001106       0.00028359      -0.00004268
H        2.44865215       5.16599724       3.51747090       0.00012907       0.00012007      -0.00015067
H       -1.72266597      -0.25269990       2.56665378      -0.00024580      -0.00014655       0.00021494
H       -2.18643915       1.68386593       5.66115656       0.00055356       0.00008999      -0.00107524
H        2.91231939       3.22934155       0.42321412       0.00076002      -0.00042912      -0.00107344
H        1.37501105       4.41534244       4.55093656      -0.00010593      -0.00002211      -0.00052425
H       -0.64905445       0.49798723       1.53353091      -0.00007353      -0.00007842       0.00075436
