40
Lattice="5.32055938034278 0.01826740086728 -1.20193101826721 0.00669029395139 5.34460266616809 -0.02706453980336 -4.42322481486248 -0.0534571266116 7.79585196835822" Properties=species:S:1:pos:R:3:forces:R:3 pbc="T T T"
C        1.12960709       4.36201444       1.08254863       0.00012316      -0.00008228      -0.00006119
C       -0.21643179       0.95108944       5.42528624      -0.00012856      -0.00007328      -0.00012084
C        1.48423214       1.56423823       2.17683350      -0.00010413       0.00013755      -0.00016275
C       -0.66307419       3.68631805       4.46993912      -0.00006556      -0.00002391       0.00002623
C        1.50020220      -0.17672749       0.00518921      -0.00023140      -0.00007251      -0.00010773
C       -0.53334380       5.52487826       6.55253766       0.00022574      -0.00001877       0.00008767
C        1.20951979       2.51469766       3.25473797      -0.00005991      -0.00003240      -0.00007739
C       -0.36774424       2.80580754       3.32717792       0.00015915      -0.00003240      -0.00004782
C        1.27244794       1.13641640      -0.01769370      -0.00009436      -0.00018332       0.00006428
C       -0.31913267       4.21159861       6.58833656       0.00012573       0.00036741       0.00003240
C        1.98274484       3.68913128       3.09671000       0.00006196      -0.00015812       0.00003702
C       -1.18459272       1.64518630       3.42125083       0.00002211       0.00003857      -0.00010079
N       -2.79101689       1.98390153       6.87943543       0.00008408       0.00002957      -0.00009205
N        3.70486057       3.32846895      -0.35337650      -0.00007379      -0.00007533       0.00017921
N        1.97776059       4.73955048       3.91332832      -0.00007610       0.00018152       0.00007019
N       -0.98437297       0.51585153       2.66679295       0.00005425      -0.00002803      -0.00007765
O        0.61255097       1.68456788       1.04004828      -0.00002185       0.00006196       0.00012084
O        0.33127014       3.67115045       5.51235607      -0.00017998      -0.00005219      -0.00017226
O        2.35855813       4.01708481       1.83050366      -0.00014398       0.00008048       0.00022549
O       -1.46874989       1.25155023       4.73231984       0.00005631       0.00002597      -0.00021803
H        0.43846197       4.80480365       1.78919914       0.00016198       0.00009333       0.00011956
H        0.44244263       0.48020583       4.70530482       0.00000180      -0.00012958       0.00010207
H        2.52535738       1.75346200       1.83430917      -0.00004474      -0.00004011       0.00011878
H       -1.58805690       3.36535543       4.93386454       0.00004268      -0.00011210       0.00008279
H        0.72916845       3.41199356       0.79741793       0.00015041      -0.00004191       0.00012804
H        0.20044411       1.90575192       5.67878926      -0.00002263      -0.00004808      -0.00001954
H        1.37823177       0.57883667       2.58099152       0.00014013       0.00019669       0.00020697
H       -0.75237596       4.69114523       4.10599573      -0.00021392      -0.00021237      -0.00005528
H       -2.36779293      -0.68929680       7.01954011       0.00010773       0.00003780      -0.00001723
H        3.35647564       6.07223230      -0.46844658      -0.00012881       0.00013884      -0.00019283
H        1.40592326       2.02768994       4.19318368       0.00006299       0.00010156      -0.00007585
H       -0.52768153       3.36053491       2.42078843      -0.00002648       0.00000900      -0.00001697
H       -3.16319946       2.91092587       6.96906950       0.00012701      -0.00011287      -0.00014090
H        4.20497926       2.45479859      -0.38075890      -0.00015247       0.00003445       0.00017535
H        2.75383214       5.40418542       3.80481666       0.00015709      -0.00008125      -0.00000848
H       -1.82280384      -0.06746957       2.64233840      -0.00002571      -0.00007868      -0.00004422
H       -2.25904494       1.77010849       6.03612229       0.00002443       0.00019875      -0.00019952
H        3.19054634       3.51409714       0.50290286      -0.00007970       0.00001388       0.00018820
H        1.59454808       4.58411142       4.83857610      -0.00007585      -0.00007045       0.00002751
H       -0.65654561       0.73538979       1.73637141       0.00006145       0.00001286       0.00001620
