40
Lattice="5.05732279325536 0.06190021455026 -1.23748772800887 0.04458220267608 5.10003545494502 -0.05568271759543 -4.31510279564806 -0.12546893408839 7.53769788423387" Properties=species:S:1:pos:R:3:forces:R:3 pbc="T T T"
C        1.10599162       4.11201928       1.03883011      -0.00009282      -0.00018640       0.00007456
C       -0.31921711       0.92459892       5.18989956       0.00018383       0.00021572      -0.00018101
C        1.40839804       1.48186186       1.99003379       0.00004139       0.00008330       0.00003085
C       -0.64463690       3.53766744       4.27275667       0.00005914      -0.00006968      -0.00009153
C        1.43538750      -0.23790109      -0.02882400      -0.00001311       0.00027639      -0.00004474
C       -0.63359953       5.28679320       6.27350729      -0.00022420      -0.00007713       0.00041163
C        1.11773901       2.33485414       3.10974561      -0.00013550      -0.00019103      -0.00003625
C       -0.34434028       2.69824711       3.13998417      -0.00000386      -0.00011287       0.00017021
C        1.18453456       1.05292621      -0.09378034       0.00032062       0.00011621      -0.00056564
C       -0.38504404       3.99586624       6.34156998      -0.00012367      -0.00010542       0.00015478
C        1.94464611       3.48629318       3.02860573       0.00009102       0.00007713       0.00006736
C       -1.19148800       1.55846142       3.19872652       0.00001234       0.00040958       0.00015812
N       -2.72091480       1.86884321       6.63932869      -0.00060884      -0.00029722       0.00082841
N        3.51534915       3.17388612      -0.39936250       0.00017021       0.00021494      -0.00014784
N        1.75705674       4.61046321       3.70888792       0.00013935       0.00002494      -0.00034119
N       -0.93583989       0.41275004       2.54747550       0.00011287      -0.00011724      -0.00040803
O        0.48202180       1.55261007       0.94368539      -0.00013935       0.00006531       0.00005708
O        0.31051686       3.49595946       5.29729546       0.00011159      -0.00005296       0.00001491
O        2.31563615       3.80861727       1.75127888       0.00000900       0.00002134       0.00008845
O       -1.53430267       1.21895775       4.49395665      -0.00004062       0.00003985      -0.00002494
H        0.43719499       4.56651851       1.74522966      -0.00001517      -0.00006094       0.00000231
H        0.33730568       0.45812476       4.47954787      -0.00001774       0.00016841       0.00009230
H        2.41378576       1.77931487       1.58494051      -0.00003959      -0.00010542       0.00009153
H       -1.60530445       3.21187118       4.70499766       0.00002725       0.00017715      -0.00014270
H        0.70601637       3.17146167       0.77289153       0.00005142      -0.00003702       0.00009307
H        0.09177336       1.86472664       5.44428670      -0.00007868       0.00009693       0.00007868
H        1.46078444       0.48466613       2.33381812       0.00002803      -0.00015992       0.00009616
H       -0.73813139       4.53539164       3.93598246       0.00024554       0.00016044      -0.00020569
H       -2.32610001      -0.85320410       6.76503019      -0.00003497       0.00000848      -0.00030082
H        3.13671184       5.91092515      -0.51909944       0.00004397      -0.00017998       0.00017612
H        1.27274954       1.75914371       3.98932875       0.00009025      -0.00006299      -0.00018898
H       -0.48511297       3.28747498       2.26721453      -0.00012881       0.00001774      -0.00005579
H       -3.21580614       2.73795066       6.69201991      -0.00010336      -0.00005759       0.00004397
H        4.02195348       2.31058795      -0.44802551       0.00011493      -0.00010002      -0.00010696
H        2.55633587       5.23955402       3.61978214      -0.00020697      -0.00010130       0.00005888
H       -1.75280183      -0.19455932       2.59159489       0.00013164       0.00003831       0.00006248
H       -2.20287513       1.71355076       5.78585528       0.00009822       0.00005348      -0.00035661
H        2.99613116       3.31650548       0.45453486       0.00006865      -0.00011801       0.00007122
H        1.45155327       4.46202131       4.65565439      -0.00009462       0.00002700       0.00008048
H       -0.65252305       0.58171319       1.59800913      -0.00004937      -0.00009899       0.00019540
