40
Lattice="5.13978421465623 0.05573399559506 -1.22558690709534 0.04181708269617 5.17864642737387 -0.04010338670862 -4.34593909842401 -0.10078085126776 7.62739268258218" Properties=species:S:1:pos:R:3:forces:R:3 pbc="T T T"
C        1.12035075       4.19650093       1.06169329       0.00048902       0.00042423      -0.00054276
C       -0.28425865       0.93802856       5.27988693      -0.00004011       0.00015864       0.00007173
C        1.44308288       1.51851243       2.04022978      -0.00012701      -0.00011159      -0.00011441
C       -0.63441903       3.59411312       4.34536071       0.00008999       0.00010387      -0.00001388
C        1.44619664      -0.21903728      -0.02264595       0.00013575      -0.00166016       0.00056256
C       -0.59151853       5.36738037       6.38297242      -0.00015658       0.00057361      -0.00009333
C        1.15553779       2.39407522       3.15798012       0.00001080      -0.00015812       0.00030519
C       -0.33646899       2.73799288       3.20964090       0.00013293       0.00016147      -0.00012881
C        1.20920972       1.08078318      -0.07275048      -0.00031213       0.00123747       0.00027871
C       -0.35768551       4.06749552       6.43776252      -0.00026611      -0.00081992       0.00052990
C        1.97441762       3.55238896       3.05737557       0.00009770      -0.00011210       0.00010979
C       -1.17850196       1.59161006       3.28383301      -0.00016147      -0.00025505      -0.00024374
N       -2.73336001       1.91440753       6.72827371       0.00039904       0.00018178      -0.00065563
N        3.57778240       3.22531091      -0.37379367       0.00064612      -0.00007945      -0.00092328
N        1.82749374       4.66064375       3.78146729       0.00041420       0.00030236      -0.00054970
N       -0.95249920       0.45522340       2.59134155      -0.00011596       0.00016995       0.00032524
O        0.51932512       1.59511119       0.97417338       0.00028796      -0.00015067      -0.00012393
O        0.32621087       3.55406539       5.38339376      -0.00018075      -0.00003111       0.00004808
O        2.34050645       3.88568467       1.78157331      -0.00018923      -0.00011184      -0.00001723
O       -1.51102591       1.23584731       4.57991744       0.00002314       0.00010156       0.00008459
H        0.44639102       4.64880962       1.76969130       0.00005014       0.00016815       0.00026919
H        0.37662625       0.47259386       4.56784990      -0.00011390      -0.00009539      -0.00012264
H        2.45069672       1.79742516       1.65015377      -0.00007559       0.00008459       0.00006891
H       -1.59121447       3.27672948       4.77473129       0.00007096      -0.00001594      -0.00014861
H        0.72115370       3.25046968       0.79494486      -0.00015941      -0.00016018      -0.00020620
H        0.12589092       1.88419150       5.53392273       0.00001723      -0.00005656       0.00018872
H        1.46335238       0.51996167       2.39939996       0.00002880      -0.00021597      -0.00010413
H       -0.71228714       4.59501870       3.99718093      -0.00011004       0.00022214       0.00008356
H       -2.34385408      -0.80334483       6.85149576      -0.00011364      -0.00008690      -0.00002468
H        3.20824669       5.96276982      -0.49094827       0.00005682       0.00008716       0.00001131
H        1.32912588       1.83517401       4.05077037      -0.00001337       0.00005374       0.00005476
H       -0.49387917       3.31594360       2.32623417       0.00008665      -0.00008253      -0.00003188
H       -3.21779843       2.79102551       6.77915721       0.00005656      -0.00005708       0.00031547
H        4.08108394       2.35790053      -0.41671932      -0.00027331       0.00026894      -0.00018358
H        2.62371140       5.29819013       3.69819785      -0.00012727      -0.00012521      -0.00013164
H       -1.77099314      -0.15402024       2.62224170      -0.00008228      -0.00015889       0.00018692
H       -2.21541486       1.74134316       5.87413531       0.00000231       0.00021212       0.00019335
H        3.05862995       3.38338935       0.48105418      -0.00045689      -0.00000386       0.00054019
H        1.50023297       4.50173774       4.72190102       0.00017098      -0.00012084       0.00029439
H       -0.65066261       0.63853509       1.64788829      -0.00019180       0.00015787      -0.00016224
