40
Lattice="5.06821708317621 0.06124896055499 -1.23605967301925 0.0444001986774 5.1103889128698 -0.0535535216109 -4.31926415161782 -0.12225072711177 7.55008521614387" Properties=species:S:1:pos:R:3:forces:R:3 pbc="T T T"
C        1.10794554       4.12317727       1.04200212      -0.00009950      -0.00015812       0.00004242
C       -0.31454214       0.92644260       5.20228329       0.00021032       0.00022703      -0.00015812
C        1.41322716       1.48678870       1.99665188       0.00006171       0.00009050      -0.00000926
C       -0.64310020       3.54532750       4.28256173       0.00007328      -0.00006788      -0.00008485
C        1.43659897      -0.23552792      -0.02811248      -0.00002340       0.00017895      -0.00002468
C       -0.62787503       5.29751614       6.28855886      -0.00020620      -0.00012521       0.00043015
C        1.12291663       2.34272429       3.11628305      -0.00014578      -0.00019977      -0.00007430
C       -0.34315417       2.70352921       3.14943289      -0.00000514      -0.00013421       0.00022831
C        1.18778571       1.05657788      -0.09103211       0.00029568       0.00018358      -0.00051499
C       -0.38148629       4.00530266       6.35475617      -0.00013344      -0.00005142       0.00009924
C        1.94882804       3.49498343       3.03255820       0.00011827       0.00012367       0.00012290
C       -1.18947504       1.56284051       3.21049587       0.00003420       0.00045303       0.00017226
N       -2.72253601       1.87486312       6.65160963      -0.00065075      -0.00033861       0.00073996
N        3.52360126       3.18073344      -0.39594517       0.00025917       0.00018383      -0.00008202
N        1.76641852       4.61719562       3.71890293       0.00011519      -0.00000514      -0.00036792
N       -0.93843916       0.41849458       2.55320892       0.00009822      -0.00015375      -0.00043709
O        0.48693168       1.55819264       0.94777026      -0.00013884       0.00002828       0.00001774
O        0.31259876       3.50357327       5.30915280       0.00010722      -0.00002443       0.00005065
O        2.31905229       3.81891845       1.75538660      -0.00000617      -0.00000103       0.00009719
O       -1.53118896       1.22125439       4.50568571      -0.00003342       0.00006736      -0.00003291
H        0.43839721       4.57742104       1.74855482      -0.00002340      -0.00005039       0.00001851
H        0.34275104       0.46016704       4.49182333      -0.00000154       0.00017201       0.00010079
H        2.41854114       1.78212508       1.59368623      -0.00003214      -0.00008330       0.00008742
H       -1.60346191       3.22077644       4.71388362       0.00000386       0.00019900      -0.00018795
H        0.70805972       3.18183136       0.77608701       0.00003728      -0.00003651       0.00011159
H        0.09625586       1.86743038       5.45659852      -0.00008202       0.00009050       0.00008125
H        1.46134470       0.48933500       2.34258945       0.00005734      -0.00017766       0.00010824
H       -0.73389813       4.54350828       3.94403995       0.00028591       0.00018538      -0.00024271
H       -2.32844128      -0.84678834       6.77709454      -0.00006119       0.00000797      -0.00031008
H        3.14600369       5.91782407      -0.51556156       0.00004191      -0.00019797       0.00018512
H        1.28034013       1.76918798       3.99766737       0.00009976      -0.00007996      -0.00017226
H       -0.48627144       3.29113991       2.27513502      -0.00013498       0.00002905      -0.00010233
H       -3.21615574       2.74493741       6.70406747      -0.00011210      -0.00003008       0.00006299
H        4.02962439       2.31679549      -0.44396481       0.00007868      -0.00011339      -0.00012136
H        2.56540109       5.24730584       3.63085376      -0.00020260      -0.00012213       0.00006531
H       -1.75552948      -0.18920419       2.59582125       0.00012778       0.00006068       0.00007559
H       -2.20455570       1.71722564       5.79797253       0.00008665       0.00007996      -0.00028616
H        3.00444691       3.32553091       0.45814959       0.00005039      -0.00012881       0.00003805
H        1.45812776       4.46693798       4.66484210      -0.00007276       0.00000386       0.00008639
H       -0.65244478       0.58950375       1.60457107      -0.00007713      -0.00008433       0.00018640
