40
Lattice="4.96014563196141 0.06724423951143 -1.247792403934 0.04583940566695 5.0097926776007 -0.07405298246196 -4.27644496792893 -0.1531040878876 7.41872100009831" Properties=species:S:1:pos:R:3:forces:R:3 pbc="T T T"
C        1.09282119       4.01557085       1.01574423       0.00015709      -0.00018255      -0.00058313
C       -0.36156432       0.90777702       5.08121651      -0.00007353       0.00040983       0.00051268
C        1.37594862       1.44816276       1.92046552      -0.00009796      -0.00007071      -0.00004294
C       -0.64510309       3.47494221       4.17699390       0.00017663       0.00017638       0.00005374
C        1.42084033      -0.26279472      -0.03732555       0.00010850      -0.00117114       0.00038181
C       -0.68938010       5.18638381       6.13453808       0.00040212      -0.00131126      -0.00018306
C        1.07735843       2.26752438       3.04576380      -0.00008690      -0.00001954      -0.00007199
C       -0.34633116       2.65575454       3.05152325       0.00011210       0.00002108      -0.00004834
C        1.15074854       1.01557498      -0.12181245      -0.00002417       0.00125804      -0.00039646
C       -0.41931087       3.90798055       6.21906638       0.00003214       0.00209519      -0.00084204
C        1.92662400       3.40727012       3.00100102      -0.00008793       0.00031522       0.00028591
C       -1.19587361       1.51618243       3.09593481       0.00012933      -0.00029156      -0.00005682
N       -2.70749024       1.81342282       6.52255953      -0.00013755      -0.00029439       0.00031779
N        3.43887785       3.11008311      -0.42542832      -0.00042475      -0.00126935       0.00128735
N        1.64984876       4.55697181       3.60285394      -0.00038567      -0.00038541      -0.00012624
N       -0.91806640       0.36623192       2.49454331       0.00026585       0.00027691       0.00003728
O        0.43855627       1.49945330       0.90672979       0.00005142      -0.00006659      -0.00002160
O        0.29272501       3.42409998       5.19038926       0.00004448       0.00000051       0.00000951
O        2.29147165       3.72261063       1.71297312      -0.00001054       0.00005914      -0.00004962
O       -1.56030842       1.20062422       4.38423275       0.00000643       0.00002005      -0.00026071
H        0.44021285       4.47772771       1.72580998      -0.00013318      -0.00002623       0.00004577
H        0.29080130       0.44538856       4.37106769       0.00017586       0.00005862       0.00003959
H        2.36402680       1.77277385       1.48393102      -0.00007199       0.00003908       0.00001568
H       -1.63244722       3.14990696       4.61381156       0.00001260       0.00007765      -0.00012598
H        0.68656530       3.08282971       0.75479730       0.00014655      -0.00001954      -0.00002880
H        0.04489814       1.84051104       5.34194131      -0.00016147      -0.00002725       0.00004011
H        1.49249028       0.45399159       2.23451552      -0.00001131       0.00004654       0.00009719
H       -0.76221823       4.46909088       3.86304317       0.00018023       0.00000334      -0.00015684
H       -2.31907950      -0.91703703       6.64027290      -0.00023603       0.00018435      -0.00021572
H        3.05071589       5.84075873      -0.54301958      -0.00001080       0.00002211       0.00044043
H        1.20619035       1.66717530       3.90522252       0.00001620      -0.00016738       0.00005451
H       -0.47493426       3.25626591       2.19214527      -0.00000617       0.00014732      -0.00004885
H       -3.21691996       2.67175808       6.57606773      -0.00013215      -0.00007790       0.00004808
H        3.94843318       2.25180568      -0.47893239      -0.00006659       0.00019952      -0.00006171
H        2.45634805       5.17244474       3.52600603       0.00010439       0.00011390       0.00004834
H       -1.72479234      -0.24898082       2.57068543      -0.00009539      -0.00008947       0.00005836
H       -2.18740081       1.68583748       5.67156698      -0.00014398       0.00026020      -0.00005271
H        2.91875135       3.23744147       0.42557628       0.00033527      -0.00026251      -0.00030930
H        1.38092161       4.41894452       4.55837535      -0.00008510       0.00000463      -0.00028154
H       -0.64945255       0.50457947       1.53899100       0.00002571      -0.00005682       0.00019026
