40
Lattice="4.9437557150805 0.0672757395112 -1.24962446692069 0.04537300367034 4.99286589472368 -0.07645321544452 -4.27032923297336 -0.15611112386575 7.39757988625192" Properties=species:S:1:pos:R:3:forces:R:3 pbc="T T T"
C        1.09009042       3.99780803       1.01170307      -0.00025685      -0.00063095       0.00002880
C       -0.36956147       0.90563805       5.06005349       0.00022677       0.00083844       0.00017226
C        1.36874285       1.44123483       1.91027711       0.00010516      -0.00101584      -0.00049828
C       -0.64832143       3.46215728       4.16160898      -0.00014835       0.00079293       0.00014450
C        1.42025180      -0.26611143      -0.03802171      -0.00017149       0.00241529      -0.00076259
C       -0.69967286       5.16961023       6.10984759      -0.00023320      -0.00000206       0.00022317
C        1.06926128       2.25566471       3.03535940      -0.00027331       0.00086338       0.00030802
C       -0.34879532       2.64777090       3.03647900       0.00031342      -0.00079910       0.00003291
C        1.14592188       1.00980031      -0.12606316      -0.00014964      -0.00321131       0.00158817
C       -0.42534538       3.89373908       6.19787073      -0.00083201      -0.00186251       0.00156297
C        1.91913452       3.39409414       2.99626772       0.00007945      -0.00010979       0.00025968
C       -1.19872657       1.50937623       3.07549193       0.00004782       0.00012701      -0.00051756
N       -2.70562989       1.80553614       6.50137459       0.00101790       0.00128092      -0.00207025
N        3.42617335       3.09793245      -0.42954186       0.00075642       0.00191753      -0.00220986
N        1.63426307       4.54595322       3.58725046       0.00048825      -0.00020517      -0.00069574
N       -0.91361815       0.35746155       2.48461241      -0.00055227       0.00032473       0.00074459
O        0.43177501       1.49074874       0.90033868      -0.00002057       0.00001311      -0.00001825
O        0.28875141       3.41275441       5.17145985       0.00011776      -0.00014758      -0.00012856
O        2.28619612       3.70637738       1.70819848       0.00020235      -0.00016095       0.00003831
O       -1.56569329       1.19704359       4.36361648      -0.00019823       0.00007636       0.00048542
H        0.43942515       4.46104111       1.72174339      -0.00002108      -0.00007868      -0.00062118
H        0.28103728       0.44234261       4.34999304       0.00008999       0.00004705       0.00057438
H        2.35658073       1.76807599       1.46848728       0.00038129       0.00045380       0.00024066
H       -1.63598929       3.13520616       4.60345618      -0.00039724      -0.00039544      -0.00025197
H        0.68324770       3.06669237       0.75060230       0.00023140       0.00016275      -0.00033219
H        0.03733461       1.83675643       5.32109468      -0.00035301      -0.00029876       0.00039286
H        1.49347195       0.44807117       2.21975961      -0.00002340       0.00041420      -0.00029053
H       -0.77320580       4.45531216       3.85215488       0.00010953      -0.00036587       0.00024734
H       -2.31657022      -0.92475719       6.61875914       0.00015941      -0.00067620      -0.00039698
H        3.03719437       5.82831021      -0.54692839      -0.00011081       0.00045071       0.00035044
H        1.19338102       1.65192889       3.89164388      -0.00010490      -0.00028282      -0.00007945
H       -0.47286330       3.25154700       2.18021887       0.00009153       0.00030519      -0.00002083
H       -3.21654737       2.66240057       6.55547979      -0.00016275       0.00010953      -0.00017715
H        3.93713741       2.24111063      -0.48368342       0.00037667      -0.00045637       0.00030956
H        2.44111548       5.15971059       3.50910008      -0.00015684      -0.00000848      -0.00024246
H       -1.72052470      -0.25623324       2.56259239       0.00006813      -0.00005811       0.00025840
H       -2.18553105       1.68212402       5.65077923      -0.00012753       0.00011570       0.00084204
H        2.90608523       3.22130735       0.42101491      -0.00062941       0.00002597       0.00044069
H        1.36922039       4.41183800       4.54364158      -0.00049751       0.00015092       0.00007945
H       -0.64863850       0.49165421       1.52821827       0.00055767      -0.00011930      -0.00001080
