40
Lattice="5.16655412546173 0.05280032661637 -1.22142454012558 0.03977269171103 5.20412619118874 -0.03588528673927 -4.35593473335139 -0.09305995332386 7.65457992338465" Properties=species:S:1:pos:R:3:forces:R:3 pbc="T T T"
C        1.12421784       4.22347386       1.06767106       0.00002905       0.00000591       0.00015349
C       -0.27318568       0.94171181       5.30628868       0.00002263       0.00023114      -0.00000900
C        1.45240581       1.52886548       2.05756995       0.00007559       0.00001388      -0.00005476
C       -0.63303375       3.61089286       4.36777479      -0.00001440      -0.00011724       0.00006891
C        1.45119785      -0.21241643      -0.01993143       0.00002468      -0.00010850      -0.00004834
C       -0.57885354       5.39301098       6.41509599      -0.00009719       0.00010310       0.00003574
C        1.16636780       2.41280391       3.17315887       0.00001774       0.00000874       0.00001800
C       -0.33547794       2.75031327       3.23076455      -0.00006171      -0.00000231       0.00000797
C        1.21760698       1.08999279      -0.06546919       0.00005528      -0.00017226       0.00014347
C       -0.34890565       4.09060874       6.46624321      -0.00011570       0.00014013      -0.00010979
C        1.98164743       3.57374126       3.06534774       0.00001054      -0.00002160      -0.00007508
C       -1.17654541       1.60214468       3.30865075      -0.00005682      -0.00000617      -0.00000617
N       -2.73788555       1.92845674       6.75502336       0.00006119       0.00010619      -0.00019155
N        3.59805229       3.24183741      -0.36678802      -0.00000797      -0.00016455       0.00024348
N        1.85102677       4.67562597       3.80335432       0.00001106       0.00013755       0.00006531
N       -0.95652115       0.46759066       2.60542403      -0.00002982      -0.00015298      -0.00004911
O        0.53168160       1.60904426       0.98392694       0.00020954      -0.00005631      -0.00004319
O        0.33090533       3.57303757       5.40848565      -0.00017638       0.00004037       0.00008279
O        2.34719521       3.90902490       1.79051181      -0.00003908       0.00011570       0.00001748
O       -1.50379703       1.24064611       4.60612681       0.00008742      -0.00011210      -0.00003420
H        0.44847329       4.67474600       1.77620465       0.00003342      -0.00005554      -0.00009436
H        0.38807662       0.47595041       4.59324198       0.00007559      -0.00004731      -0.00001363
H        2.46310131       1.79937587       1.67300004       0.00002108      -0.00004808      -0.00015375
H       -1.58668269       3.29463887       4.79911687       0.00005271       0.00001388       0.00007353
H        0.72524926       3.27607672       0.79974454      -0.00006659      -0.00011261      -0.00014347
H        0.13745133       1.88949177       5.56011068      -0.00001363      -0.00001466       0.00009513
H        1.45988918       0.53042476       2.42201529      -0.00014887       0.00003008       0.00002237
H       -0.70932491       4.61270466       4.01684423       0.00007662       0.00002674      -0.00001928
H       -2.34870136      -0.78654246       6.87778632      -0.00000103       0.00005554      -0.00007996
H        3.23186812       5.97993136      -0.48276002      -0.00000257      -0.00002314       0.00008819
H        1.34600544       1.86054181       4.07062397       0.00009899       0.00006119      -0.00006068
H       -0.49693112       3.32525107       2.34435566      -0.00015864       0.00003394       0.00006556
H       -3.21714365       2.80827407       6.80610793      -0.00000000      -0.00005065      -0.00007919
H        4.10099958       2.37353237      -0.40745183      -0.00000926       0.00008870       0.00005425
H        2.64528804       5.31682300       3.71931666       0.00000334      -0.00000437      -0.00002648
H       -1.77639187      -0.14086713       2.63030623      -0.00000437      -0.00006736       0.00003497
H       -2.21972351       1.74934082       5.90103791      -0.00001388       0.00005091      -0.00012316
H        3.07868878       3.40406862       0.48814847      -0.00001363       0.00005116       0.00014321
H        1.51617596       4.51555933       4.74179717      -0.00002905       0.00002957       0.00001800
H       -0.65023157       0.65552543       1.66363944       0.00009410      -0.00000617      -0.00001646
