40
Lattice="4.9966347026963 0.06532732452536 -1.2442822039595 0.04539859667015 5.04334244035694 -0.06742220451014 -4.29105669082277 -0.14312250996012 7.46516339476088" Properties=species:S:1:pos:R:3:forces:R:3 pbc="T T T"
C        1.09627935       4.05120168       1.02133101      -0.00025402      -0.00070577       0.00019566
C       -0.34556425       0.91411127       5.11984531      -0.00023937       0.00017381       0.00049622
C        1.38216350       1.45641105       1.95099113       0.00009025      -0.00039518       0.00003651
C       -0.65135448       3.49533731       4.21686532       0.00007919       0.00040752      -0.00008048
C        1.42844606      -0.25089186      -0.03332224       0.00001157       0.00104824      -0.00052219
C       -0.66586305       5.22682896       6.18780858      -0.00013035       0.00080810      -0.00030236
C        1.08919389       2.29135659       3.07170459       0.00008099       0.00045226      -0.00018152
C       -0.34944163       2.66989152       3.08639219       0.00011956      -0.00019772       0.00004911
C        1.16574702       1.03243454      -0.10993025       0.00024914      -0.00066437      -0.00024863
C       -0.40430518       3.94356029       6.26640531      -0.00014578      -0.00133235       0.00069831
C        1.92441310       3.43826504       3.00706821       0.00000360      -0.00044866       0.00003754
C       -1.20193406       1.53386053       3.13191637       0.00005451       0.00003831      -0.00022111
N       -2.71132203       1.83567522       6.56768872      -0.00005039      -0.00014090      -0.00006402
N        3.46914699       3.13586829      -0.41711185       0.00013678       0.00054919      -0.00042372
N        1.70048326       4.57435975       3.64817763      -0.00018383       0.00004294       0.00013087
N       -0.91901112       0.38153745       2.51681435      -0.00027768       0.00011261       0.00047694
O        0.45466185       1.52166211       0.92022809      -0.00016738       0.00021057       0.00008896
O        0.29954004       3.45370874       5.22992056       0.00004345      -0.00013704       0.00002031
O        2.29798576       3.75275540       1.72757646       0.00025377      -0.00000077       0.00001954
O       -1.55166465       1.20624434       4.42690253      -0.00007765       0.00001003       0.00008099
H        0.43361144       4.50753545       1.72824949      -0.00009642       0.00002674       0.00006505
H        0.30590736       0.44723040       4.40913814       0.00014835      -0.00003111      -0.00017818
H        2.38739325       1.76590855       1.53138524       0.00000514      -0.00022831      -0.00018975
H       -1.61657781       3.16383011       4.65512443      -0.00008613       0.00032833      -0.00000463
H        0.69538035       3.11519671       0.75563172       0.00024066       0.00042783       0.00031059
H        0.06574158       1.84942164       5.37528070      -0.00020363      -0.00019026      -0.00007173
H        1.46446412       0.46072404       2.27942381       0.00002160       0.00019129      -0.00006016
H       -0.76335317       4.49052943       3.89291055       0.00041652      -0.00018846      -0.00014321
H       -2.31567065      -0.88909827       6.69168291       0.00008048       0.00008690      -0.00031136
H        3.08631910       5.87188764      -0.53515258      -0.00022137      -0.00025094       0.00035738
H        1.23123904       1.70253466       3.94009987       0.00012007      -0.00003471      -0.00002083
H       -0.47871820       3.26809251       2.22262755      -0.00010079      -0.00008408       0.00007071
H       -3.21412609       2.69877582       6.62087947      -0.00003111       0.00021726       0.00017741
H        3.97920698       2.27643050      -0.46882858       0.00002803      -0.00022394      -0.00020029
H        2.50133816       5.19813369       3.55563685      -0.00026225      -0.00005656       0.00019078
H       -1.73335900      -0.22618297       2.57109427       0.00031342       0.00008870      -0.00001825
H       -2.19254283       1.69439701       5.71555490      -0.00009230       0.00012444      -0.00016327
H        2.94905764       3.26634571       0.43512091       0.00003908      -0.00013627       0.00027022
H        1.41193102       4.43664280       4.59971291      -0.00014501      -0.00002314      -0.00004088
H       -0.65031297       0.53673915       1.56278234       0.00022909       0.00012624      -0.00032653
