40
Lattice="4.97727105583699 0.06714281351217 -1.24566792294944 0.04635394466321 5.02726680747373 -0.07116025248298 -4.28265520988381 -0.14941822091438 7.44029754594154" Properties=species:S:1:pos:R:3:forces:R:3 pbc="T T T"
C        1.09578118       4.03413893       1.02020612      -0.00005734      -0.00026225       0.00004114
C       -0.35313879       0.91028266       5.10308858      -0.00009410      -0.00002700      -0.00017278
C        1.38341847       1.45555616       1.93104601       0.00004808       0.00000437       0.00011519
C       -0.64163763       3.48831615       4.19330923      -0.00006839       0.00013061      -0.00009590
C        1.42155244      -0.25916635      -0.03664313      -0.00017535       0.00007893       0.00003471
C       -0.67845644       5.20404765       6.16048482       0.00010876       0.00017381       0.00003625
C        1.08582094       2.27994948       3.05654951       0.00003342       0.00016738      -0.00006891
C       -0.34365039       2.66429349       3.06741596      -0.00001080      -0.00024451       0.00011519
C        1.15582644       1.02176320      -0.11747996       0.00002005      -0.00007970      -0.00013370
C       -0.41277459       3.92312106       6.24138741      -0.00004422      -0.00003959       0.00020775
C        1.93438023       3.42112154       3.00607615       0.00000771       0.00005142       0.00010542
C       -1.19289151       1.52356308       3.11711613      -0.00008099       0.00000257      -0.00020466
N       -2.70922661       1.82227946       6.54417104       0.00007868      -0.00017818       0.00016995
N        3.45213117       3.12241600      -0.42051772       0.00007071       0.00015504      -0.00019103
N        1.66619668       4.56832432       3.61928349       0.00000926       0.00015092      -0.00016249
N       -0.92229728       0.37574357       2.50498853       0.00006556      -0.00021443       0.00004885
O        0.44575168       1.50864879       0.91329719       0.00010876       0.00003342      -0.00009642
O        0.29697853       3.43620641       5.21033796      -0.00003214      -0.00010207       0.00004448
O        2.29709908       3.73971768       1.71827369       0.00018769       0.00002674       0.00012444
O       -1.55463738       1.20445910       4.40554969      -0.00021597       0.00000951      -0.00013344
H        0.44128162       4.49526090       1.73037039      -0.00011699      -0.00006531      -0.00004088
H        0.30088168       0.44868053       4.39277604       0.00002314       0.00016198       0.00002108
H        2.37186387       1.77762609       1.49971366       0.00016172      -0.00008228       0.00005142
H       -1.62841242       3.16534790       4.62534454      -0.00001594       0.00006633      -0.00005554
H        0.69013809       3.09970309       0.75952142      -0.00000720       0.00012958      -0.00011004
H        0.05295751       1.84468432       5.36331356       0.00000154       0.00005194       0.00019463
H        1.49177104       0.46041913       2.24962203      -0.00000514       0.00003034       0.00017509
H       -0.75116986       4.48341444       3.87490425       0.00017484       0.00004834      -0.00014681
H       -2.32172917      -0.90818201       6.66198046       0.00007173       0.00002288       0.00001980
H        3.06519622       5.85336993      -0.53803522      -0.00006813      -0.00022214      -0.00008330
H        1.21972428       1.68307247       3.91918337      -0.00028771       0.00009050      -0.00000180
H       -0.47702925       3.26152594       2.20495190       0.00029645      -0.00019720       0.00004731
H       -3.21695379       2.68216762       6.59730020      -0.00003291      -0.00005682       0.00012856
H        3.96012912       2.26266899      -0.47366193      -0.00002211       0.00001980       0.00004088
H        2.47224387       5.18570278       3.54386077      -0.00001028      -0.00003111       0.00019746
H       -1.72885885      -0.24103137       2.57884703      -0.00003008       0.00001543      -0.00020492
H       -2.18930952       1.69053120       5.69262642       0.00002340      -0.00024040       0.00018049
H        2.93215404       3.25368005       0.43103130       0.00000463       0.00029876      -0.00014218
H        1.39304253       4.42629747       4.57378322      -0.00007662       0.00020903      -0.00016712
H       -0.64991131       0.51845500       1.55040021      -0.00004268      -0.00008690       0.00011236
