40
Lattice="5.24406757689854 0.03919974571519 -1.21060032720422 0.02764286579916 5.27495658467411 -0.0283383287941 -4.38765363012093 -0.07233521047444 7.72877505984557" Properties=species:S:1:pos:R:3:forces:R:3 pbc="T T T"
C        1.13087464       4.29555846       1.07685639       0.00002597      -0.00000463      -0.00015709
C       -0.24359951       0.94915588       5.37049365      -0.00025120      -0.00015838       0.00018023
C        1.46913261       1.54845010       2.11626738      -0.00018075      -0.00017792      -0.00018358
C       -0.64254256       3.65026102       4.42781284       0.00007071      -0.00002905       0.00012778
C        1.47398334      -0.19257732      -0.00951423       0.00003471       0.00033527      -0.00019412
C       -0.54864753       5.46320572       6.49341446       0.00008356       0.00006839      -0.00004088
C        1.18930050       2.46467727       3.21570887       0.00005451       0.00001003       0.00000257
C       -0.34483232       2.78138962       3.28520276       0.00005811       0.00004782       0.00008536
C        1.24514800       1.11591343      -0.04245768      -0.00003291      -0.00034324      -0.00011261
C       -0.32723517       4.15492260       6.53675659       0.00014630      -0.00003291       0.00007199
C        1.98644428       3.63402563       3.08182027       0.00018589      -0.00017869      -0.00027999
C       -1.18200533       1.62904398       3.36858009       0.00007276       0.00007816       0.00013524
N       -2.75729362       1.96237994       6.82373551       0.00017509       0.00046177      -0.00003548
N        3.65607466       3.28692982      -0.35525758      -0.00002443      -0.00010130       0.00006865
N        1.92221236       4.70907369       3.86294724      -0.00018306       0.00009667       0.00025171
N       -0.96533359       0.49467509       2.64167497       0.00027871       0.00015375       0.00006325
O        0.57080530       1.64888687       1.01158831      -0.00016069       0.00002443       0.00002545
O        0.33891924       3.62642994       5.46849616      -0.00000771       0.00016944      -0.00007713
O        2.35837423       3.96641123       1.81297733      -0.00015247      -0.00024348      -0.00007019
O       -1.48588482       1.24846978       4.67446488       0.00006711       0.00013833       0.00006993
H        0.44683140       4.74158512       1.78481364       0.00007533      -0.00001851       0.00008459
H        0.41595306       0.48001454       4.65377541      -0.00011159       0.00008510       0.00006248
H        2.49844684       1.78058859       1.75498411      -0.00034761      -0.00013293      -0.00023217
H       -1.57768456       3.32830473       4.87707999       0.00026611       0.00005734       0.00036587
H        0.73324518       3.34571944       0.80126729      -0.00000900       0.00008202       0.00007816
H        0.17061605       1.90083828       5.62272039      -0.00000540      -0.00007276      -0.00007688
H        1.41928854       0.55473041       2.50081140      -0.00011390       0.00010850      -0.00005219
H       -0.72841201       4.65414855       4.07163797       0.00004474       0.00006711       0.00015555
H       -2.35686393      -0.73565147       6.95081381      -0.00009847      -0.00008253      -0.00015375
H        3.29996942       6.03000466      -0.46923042       0.00008202       0.00000848       0.00027716
H        1.38435517       1.94115165       4.13132979      -0.00018306       0.00018383       0.00002391
H       -0.51006656       3.35006595       2.39114749       0.00005451      -0.00010567      -0.00003677
H       -3.20404359       2.85894466       6.88378056      -0.00024580      -0.00004217       0.00007148
H        4.16182226       2.41806226      -0.38710246      -0.00007559      -0.00010490      -0.00012213
H        2.70479193       5.36622518       3.76389379       0.00007122       0.00002725      -0.00002854
H       -1.79385039      -0.10318871       2.63957734       0.00024965      -0.00002263      -0.00021212
H       -2.23626358       1.76402807       5.97235631      -0.00004139      -0.00015015      -0.00007045
H        3.13633229       3.45863323       0.49940218      -0.00003394      -0.00015092       0.00003445
H        1.55996249       4.55337592       4.79457394       0.00003831      -0.00003240      -0.00010464
H       -0.65013891       0.69924306       1.70480044       0.00012393      -0.00001877       0.00000591
