40
Lattice="5.46140206621996 0.00367332199275 -1.19199470364717 -0.00242720499521 5.35971346242068 0.00342857999323 -4.49109355713522 -0.00826246298369 7.94426171631915" Properties=species:S:1:pos:R:3:forces:R:3 pbc="T T T"
C        1.27206339       4.38264714       0.94791242       0.00034890       0.00003317       0.00011261
C       -0.30418214       0.97247765       5.80778368      -0.00034890      -0.00003317      -0.00011261
C        1.94058224       1.70236323       1.83687131      -0.00048388       0.00004782      -0.00018075
C       -0.97270105       3.65276148       4.91882475       0.00048388      -0.00004782       0.00018075
C        1.49252884      -0.20802819      -0.23679339      -0.00019540      -0.00003265       0.00011878
C       -0.52464734       5.56315292       6.99248932       0.00019540       0.00003265      -0.00011878
C        1.72226806       2.46978221       3.01914018      -0.00006068      -0.00025942       0.00033450
C       -0.75438687       2.88534249       3.73655609       0.00006068       0.00025942      -0.00033450
C        1.21918532       1.09678954      -0.19568118      -0.00029079      -0.00010670       0.00054302
C       -0.25130384       4.25833520       6.95137730       0.00029079       0.00010670      -0.00054302
C        1.99459172       3.77482830       2.97950181       0.00021572       0.00000231      -0.00052785
C       -1.02671018       1.58029645       3.77619421      -0.00021572      -0.00000231       0.00052785
N       -2.97648060       2.05716351       6.88380290       0.00074845       0.00018589      -0.00082944
N        3.94436227       3.29796125      -0.12810701      -0.00074845      -0.00018589       0.00082944
N        1.69876218       4.74212473       3.84566717      -0.00043426       0.00068186       0.00021623
N       -0.73088068       0.61300000       2.91002887       0.00043426      -0.00068186      -0.00021623
O        0.71934373       1.59241569       0.98322931       0.00012033       0.00001363       0.00017355
O        0.24853753       3.76270884       5.77246668      -0.00012033      -0.00001363      -0.00017355
O        2.49359058       4.27228085       1.80102225      -0.00027151       0.00006479      -0.00021829
O       -1.52570935       1.08284406       4.95467386       0.00027151      -0.00006479       0.00021829
H        0.53755232       4.80803582       1.61659963       0.00006633      -0.00013010       0.00015761
H        0.43032928       0.54708889       5.13909628      -0.00006633       0.00013010      -0.00015761
H        2.67503033       2.12897917       1.16887006      -0.00024477       0.00009102      -0.00001054
H       -1.70714880       3.22614554       5.58682598       0.00024477      -0.00009102       0.00001054
H        0.99745427       3.36923054       0.73624162       0.00029233      -0.00006711      -0.00031959
H       -0.02957275       1.98589416       6.01945448      -0.00029233       0.00006711       0.00031959
H        2.21561404       0.68884704       2.04745301      -0.00002777       0.00011801      -0.00000977
H       -1.24773249       4.66627764       4.70824302       0.00002777      -0.00011801       0.00000977
H       -2.55386534      -0.68178485       6.85500141       0.00018178       0.00020749       0.00004654
H        3.52174681       6.03690945      -0.09930557      -0.00018178      -0.00020749      -0.00004654
H        1.27844468       2.00284618       3.87127605       0.00004397       0.00011570       0.00004988
H       -0.31056341       3.35227866       2.88442027      -0.00004397      -0.00011570      -0.00004988
H       -3.62181168       2.83709359       6.85300631      -0.00029362       0.00032216       0.00000180
H        4.58969298       2.51803111      -0.09731017       0.00029362      -0.00032216      -0.00000180
H        2.34393968       5.52217056       3.87764078       0.00016147       0.00019463      -0.00016147
H       -1.37605826      -0.16704588       2.87805528      -0.00016147      -0.00019463       0.00016147
H       -2.52904512       1.78740762       6.01091979      -0.00035301       0.00024811       0.00019438
H        3.49692677       3.56771707       0.74477599       0.00035301      -0.00024811      -0.00019438
H        1.25205157       4.47041142       4.71830661       0.00007276       0.00017355       0.00005091
H       -0.28417021       0.88471328       2.03738961      -0.00007276      -0.00017355      -0.00005091
