40
Lattice="5.6617514518245 0.00356304199297 -1.22057610759076 -0.0026827409947 5.54945610304616 0.00383016999244 -4.64804892282541 -0.00796054298429 8.17121163587118" Properties=species:S:1:pos:R:3:forces:R:3 pbc="T T T"
C        1.31557042       4.56713879       0.98197145       0.00004165       0.00007508       0.00010876
C       -0.30455067       0.97792038       5.97249486      -0.00004165      -0.00007508      -0.00010876
C        2.01899073       1.79209060       1.88760384      -0.00006222       0.00002880      -0.00012161
C       -1.00797104       3.75296849       5.06686245       0.00006222      -0.00002880       0.00012161
C        1.53848770      -0.18464666      -0.19803875       0.00005734      -0.00021623      -0.00012701
C       -0.52746769       5.72970576       7.15250491      -0.00005734       0.00021623       0.00012701
C        1.79806438       2.58795146       3.06488278      -0.00007559      -0.00036175       0.00009770
C       -0.78704469       2.95710761       3.88958373       0.00007559       0.00036175      -0.00009770
C        1.27403350       1.13102613      -0.15589061       0.00002211      -0.00031753       0.00028282
C       -0.26301351       4.41403297       7.11035696      -0.00002211       0.00031753      -0.00028282
C        2.06128903       3.90391970       3.02450635      -0.00003702       0.00005039      -0.00007430
C       -1.05026899       1.64113942       3.92995989       0.00003702      -0.00005039       0.00007430
N       -3.09566644       2.06459209       7.09878570       0.00019206       0.00040572      -0.00025608
N        4.10668662       3.48046703      -0.14431960      -0.00019206      -0.00040572       0.00025608
N        1.78213785       4.84394330       3.94235556      -0.00024425       0.00004294      -0.00001440
N       -0.77111783       0.70111581       3.01211071       0.00024425      -0.00004294       0.00001440
O        0.78968842       1.66333705       1.01910115       0.00019386      -0.00007019       0.00005065
O        0.22133134       3.88172184       5.93536506      -0.00019386       0.00007019      -0.00005065
O        2.54504467       4.43828027       1.85020480      -0.00017252      -0.00009256      -0.00006273
O       -1.53402493       1.10677902       5.10426152       0.00017252       0.00009256       0.00006273
H        0.57301652       4.99247222       1.65136001      -0.00001311       0.00000257      -0.00003471
H        0.43800359       0.55258686       5.30310612       0.00001311      -0.00000257       0.00003471
H        2.76119977       2.21900042       1.21883734       0.00003497       0.00001954       0.00001208
H       -1.75017973       3.32605865       5.73562891      -0.00003497      -0.00001954      -0.00001208
H        1.03680854       3.55026450       0.75086706       0.00008922      -0.00008073      -0.00009487
H       -0.02578852       1.99479457       6.20359926      -0.00008922       0.00008073       0.00009487
H        2.29863489       0.77515182       2.11733924      -0.00007996      -0.00006453       0.00008485
H       -1.28761483       4.76990725       4.83712699       0.00007996       0.00006453      -0.00008485
H       -2.68113427      -0.64911991       7.09922874      -0.00015838      -0.00004962      -0.00013935
H        3.69215425       6.19417888      -0.14476269       0.00015838       0.00004962       0.00013935
H        1.37017157       2.12983813       3.93825030       0.00014990      -0.00005811       0.00013807
H       -0.35915178       3.41522111       3.01621625      -0.00014990       0.00005811      -0.00013807
H       -3.71577220       2.86649082       7.06405410       0.00012727      -0.00015170      -0.00001106
H        4.72679200       2.67856825      -0.10958773      -0.00012727       0.00015170       0.00001106
H        2.40163076       5.64626623       3.97823469      -0.00003780      -0.00002417       0.00001388
H       -1.39061083      -0.10120717       2.97623159       0.00003780       0.00002417      -0.00001388
H       -2.64636332       1.77820521       6.22926906       0.00008587      -0.00008253       0.00004551
H        3.65738347       3.76685386       0.72519693      -0.00008587       0.00008253      -0.00004551
H        1.33316423       4.55588189       4.81148860      -0.00011030      -0.00008099      -0.00000309
H       -0.32214437       0.98917718       2.14297784       0.00011030       0.00008099       0.00000309
