40
Lattice="5.34345228845278 0.00349018499311 -1.18481677966134 -0.00245485799515 5.25171875963385 0.00353277899303 -4.41445553728649 -0.00779405098462 7.80328545759742" Properties=species:S:1:pos:R:3:forces:R:3 pbc="T T T"
C        1.24452869       4.27613996       0.92217958       0.00047411       0.00016249      -0.00027485
C       -0.31798685       0.97127547       5.69982246      -0.00047411      -0.00016249       0.00027485
C        1.88861960       1.64992947       1.79908261       0.00040726      -0.00022111      -0.00046486
C       -0.96207780       3.59748588       4.82291938      -0.00040726       0.00022111       0.00046486
C        1.46675502      -0.22264343      -0.26224251       0.00018589      -0.00098859       0.00027151
C       -0.54021294       5.47005879       6.88424438      -0.00018589       0.00098859      -0.00027151
C        1.66840092       2.40106830       2.98099974      -0.00024117       0.00107755       0.00090657
C       -0.74185914       2.84634704       3.64100246       0.00024117      -0.00107755      -0.00090657
C        1.18734777       1.07415941      -0.22303943       0.00022651       0.00186148      -0.00118965
C       -0.26080569       4.17325598       6.84504147      -0.00022651      -0.00186148       0.00118965
C        1.94671024       3.69818026       2.94343637       0.00015272      -0.00197204      -0.00120148
C       -1.02016811       1.54923511       3.67856558      -0.00015272       0.00197204       0.00120148
N       -2.91786376       2.04961120       6.75003332      -0.00058493      -0.00088780       0.00159897
N        3.84440601       3.19780420      -0.12803148       0.00058493       0.00088780      -0.00159897
N        1.63687146       4.68004646       3.77497195      -0.00036972       0.00137811       0.00173755
N       -0.71032937       0.56736889       2.84703003       0.00036972      -0.00137811      -0.00173755
O        0.67676187       1.54816621       0.95487487      -0.00034170       0.00001183       0.00012136
O        0.24978000       3.69924895       5.66712707       0.00034170      -0.00001183      -0.00012136
O        2.45661054       4.17414198       1.76599813      -0.00011570      -0.00004628       0.00005528
O       -1.53006871       1.07327358       4.85600391       0.00011570       0.00004628      -0.00005528
H        0.51358656       4.70073299       1.58823065      -0.00022626      -0.00017124       0.00017458
H        0.41295563       0.54668235       5.03377120       0.00022626       0.00017124      -0.00017458
H        2.61934240       2.07600046       1.13370237      -0.00010979      -0.00038798       0.00010824
H       -1.69280027       3.17141489       5.48829959       0.00010979       0.00038798      -0.00010824
H        0.97183883       3.26659099       0.71803092      -0.00014244       0.00016892      -0.00028591
H       -0.04529672       1.98082434       5.90397111       0.00014244      -0.00016892       0.00028591
H        2.16202417       0.64031359       2.00192855       0.00008793       0.00036175       0.00013730
H       -1.23548201       4.60710172       4.62007341      -0.00008793      -0.00036175      -0.00013730
H       -2.48945750      -0.69726868       6.70321440      -0.00008125      -0.00035404      -0.00025762
H        3.41599957       5.94468392      -0.08121261       0.00008125       0.00035404       0.00025762
H        1.21092040       1.93268144       3.81839055       0.00031676      -0.00010593      -0.00019206
H       -0.28437852       3.31473402       2.80361169      -0.00031676       0.00010593       0.00019206
H       -3.57554725       2.81702115       6.72304416      -0.00037924      -0.00032627      -0.00006556
H        4.50208915       2.43039417      -0.10104210       0.00037924       0.00032627       0.00006556
H        2.29416756       5.44778616       3.80305849       0.00008408      -0.00052682      -0.00003497
H       -1.36762555      -0.20037085       2.81894349      -0.00008408       0.00052682       0.00003497
H       -2.47652186       1.78917450       5.87418889       0.00037024      -0.00002725      -0.00065383
H        3.40306410       3.45824082       0.74781282      -0.00037024       0.00002725       0.00065383
H        1.19602873       4.41784404       4.65057996       0.00002237       0.00021083      -0.00036792
H       -0.26948678       0.82957130       1.97142221      -0.00002237      -0.00021083       0.00036792
