40
Lattice="5.26391825660977 0.00342763299323 -1.18153120066782 -0.0024329309952 5.17952533877635 0.00352221299305 -4.36547393038317 -0.00763301698493 7.70623229678899" Properties=species:S:1:pos:R:3:forces:R:3 pbc="T T T"
C        1.22478898       4.20410533       0.90400554       0.00008999       0.00073894      -0.00036998
C       -0.32877763       0.97121522       5.62421841      -0.00008999      -0.00073894       0.00036998
C        1.85335607       1.61399645       1.77196897       0.00036510      -0.00076516      -0.00047077
C       -0.95734475       3.56132400       4.75625493      -0.00036510       0.00076516       0.00047077
C        1.44948600      -0.23357247      -0.27913856       0.00046254      -0.00163625       0.00013807
C       -0.55347440       5.40889292       6.80736233      -0.00046254       0.00163625      -0.00013807
C        1.63063695       2.35402346       2.95261532      -0.00014784       0.00117577       0.00067054
C       -0.73462566       2.82129700       3.57560879       0.00014784      -0.00117577      -0.00067054
C        1.16627331       1.05742332      -0.24131507      -0.00020415       0.00162802       0.00005476
C       -0.27026173       4.11789717       6.76953903       0.00020415      -0.00162802      -0.00005476
C        1.91277002       3.64532787       2.91641548      -0.00052733      -0.00048260       0.00059058
C       -1.01675840       1.52999259       3.61180838       0.00052733       0.00048260      -0.00059058
N       -2.87894651       2.04187405       6.65976781       0.00022960      -0.00079704      -0.00038464
N        3.77495826       3.13344646      -0.13154407      -0.00022960       0.00079704       0.00038464
N        1.59187867       4.63608922       3.72296498       0.00039852      -0.00063198      -0.00056667
N       -0.69586707       0.53923124       2.80525889      -0.00039852       0.00063198       0.00056667
O        0.64881225       1.51729554       0.93461900       0.00003420      -0.00014578      -0.00023731
O        0.24719913       3.65802473       5.59360485      -0.00003420       0.00014578       0.00023731
O        2.42955399       4.10716534       1.74097464      -0.00005914       0.00007225      -0.00010310
O       -1.53354266       1.06815532       4.78724932       0.00005914      -0.00007225       0.00010310
H        0.49648334       4.62757787       1.56837252      -0.00019026      -0.00035738       0.00010259
H        0.39952836       0.54774258       4.95985125       0.00019026       0.00035738      -0.00010259
H        2.58144521       2.03893471       1.10828920       0.00012521      -0.00034247      -0.00000797
H       -1.68543358       3.13638574       5.41993468      -0.00012521       0.00034247       0.00000797
H        0.95239832       3.19781524       0.70473180      -0.00020080      -0.00005811      -0.00027794
H       -0.05638670       1.97750520       5.82349215       0.00020080       0.00005811       0.00027794
H        2.12646280       0.60763042       1.96992627       0.00004062       0.00058570       0.00012110
H       -1.23045112       4.56768998       4.55829759      -0.00004062      -0.00058570      -0.00012110
H       -2.44937407      -0.70812448       6.59889466      -0.00023500      -0.00004628      -0.00012547
H        3.34538564       5.88344483      -0.07067095       0.00023500       0.00004628       0.00012547
H        1.16478372       1.88556177       3.78036229       0.00017432      -0.00015349       0.00019360
H       -0.26877233       3.28975880       2.74786185      -0.00017432       0.00015349      -0.00019360
H       -3.54132555       2.80324451       6.63655286      -0.00058595       0.00001543      -0.00004602
H        4.43733696       2.37207591      -0.10832889       0.00058595      -0.00001543       0.00004602
H        2.25388860       5.39777418       3.74724932       0.00045020       0.00001800       0.00013138
H       -1.35787709      -0.22245376       2.78097458      -0.00045020      -0.00001800      -0.00013138
H       -2.44160315       1.78788148       5.78251767      -0.00009642       0.00022369       0.00039466
H        3.33761489       3.38743893       0.74570597       0.00009642      -0.00022369      -0.00039466
H        1.15504020       4.38033132       4.59993587      -0.00019540       0.00000077       0.00019566
H       -0.25902873       0.79498914       1.92828822       0.00019540      -0.00000077      -0.00019566
