40
Lattice="5.30998053251885 0.00345404499318 -1.18344918666404 -0.00245127699516 5.22139944969369 0.003546562993 -4.3937802313273 -0.00769475698481 7.7628151396773" Properties=species:S:1:pos:R:3:forces:R:3 pbc="T T T"
C        1.23633005       4.24595097       0.91458160       0.00004757      -0.00002494      -0.00014527
C       -0.32258108       0.97120832       5.66833152      -0.00004757       0.00002494       0.00014527
C        1.87371223       1.63489933       1.78779148      -0.00011647      -0.00009719       0.00010002
C       -0.95996329       3.58225988       4.79512159       0.00011647       0.00009719      -0.00010002
C        1.45948033      -0.22713716      -0.26939111       0.00032087      -0.00068494      -0.00007019
C       -0.54573112       5.44429638       6.85230405      -0.00032087       0.00068494       0.00007019
C        1.65254299       2.38142174       2.96926384       0.00005785       0.00049262      -0.00020337
C       -0.73879408       2.83573747       3.61364944      -0.00005785      -0.00049262       0.00020337
C        1.17844686       1.06726534      -0.23080054      -0.00010747       0.00113051      -0.00016738
C       -0.26469765       4.14989391       6.81371366       0.00010747      -0.00113051       0.00016738
C        1.93248405       3.67611658       2.93230077      -0.00027382      -0.00023397       0.00039415
C       -1.01873479       1.54104265       3.65061225       0.00027382       0.00023397      -0.00039415
N       -2.90163878       2.04661472       6.71215069       0.00039312      -0.00086569      -0.00017175
N        3.81538816       3.17054454      -0.12923777      -0.00039312       0.00086569       0.00017175
N        1.61815116       4.66181635       3.75355076       0.00046074       0.00005451      -0.00046614
N       -0.70440194       0.55534288       2.82936229      -0.00046074      -0.00005451       0.00046614
O        0.66487546       1.53529656       0.94639701       0.00000180      -0.00013010      -0.00002648
O        0.24887355       3.68186246       5.63651601      -0.00000180       0.00013010       0.00002648
O        2.44537644       4.14611631       1.75560531       0.00008459       0.00000694      -0.00011030
O       -1.53162748       1.07104311       4.82730782      -0.00008459      -0.00000694       0.00011030
H        0.50642056       4.67012698       1.57986591      -0.00011621      -0.00020209       0.00006582
H        0.40732876       0.54703222       5.00304703       0.00011621       0.00020209      -0.00006582
H        2.60338824       2.06055538       1.12319019       0.00012110      -0.00018640      -0.00006839
H       -1.68963898       3.15660383       5.45972285      -0.00012110       0.00018640       0.00006839
H        0.96390597       3.23770590       0.71241355      -0.00008356       0.00025788      -0.00020106
H       -0.05015672       1.97945329       5.87049957       0.00008356      -0.00025788       0.00020106
H        2.14685645       0.62659608       1.98864643       0.00010439       0.00024785       0.00018846
H       -1.23310715       4.59056309       4.59426661      -0.00010439      -0.00024785      -0.00018846
H       -2.47239690      -0.70174199       6.65969287      -0.00018281      -0.00017072      -0.00001748
H        3.38614610       5.91890109      -0.07677999       0.00018281       0.00017072       0.00001748
H        1.19139509       1.91295915       3.80252710       0.00004705      -0.00031419       0.00023706
H       -0.27764608       3.30420018       2.78038622      -0.00004705       0.00031419      -0.00023706
H       -3.56174599       2.81115593       6.68657523      -0.00060215       0.00006094      -0.00001671
H        4.47549503       2.40600325      -0.10366208       0.00060215      -0.00006094       0.00001671
H        2.27787367       5.42669462       3.78019783       0.00015118      -0.00036613       0.00003780
H       -1.36412453      -0.20953544       2.80271523      -0.00015118       0.00036613      -0.00003780
H       -2.46202586       1.78884067       5.83562326      -0.00001903       0.00027588       0.00015941
H        3.37577523       3.42831851       0.74728954       0.00001903      -0.00027588      -0.00015941
H        1.17904214       4.40228850       4.62979596      -0.00026842       0.00003291       0.00036021
H       -0.26529305       0.81487071       1.95311729       0.00026842      -0.00003291      -0.00036021
