40
Lattice="5.74572650065875 0.00362142599285 -1.23719648255795 -0.00271743999464 5.63022714088673 0.00387629199235 -4.72334280167679 -0.00807244998407 8.25387354070802" Properties=species:S:1:pos:R:3:forces:R:3 pbc="T T T"
C        1.33226282       4.64397603       0.99140603      -0.00039389      -0.00040083      -0.00156143
C       -0.31259659       0.98180068       6.02914796       0.00039389       0.00040083       0.00156143
C        2.04860541       1.82854566       1.90288958       0.00173292      -0.00067363       0.00057464
C       -1.02893926       3.79723097       5.11766439      -0.00173292       0.00067363      -0.00057464
C        1.55896313      -0.17666797      -0.18483263      -0.00182163       0.00436239       0.00065460
C       -0.53929665       5.80244461       7.20538647       0.00182163      -0.00436239      -0.00065460
C        1.82390448       2.63628907       3.07633559       0.00107138       0.00508718       0.00156529
C       -0.80423832       2.98948754       3.94421861      -0.00107138      -0.00508718      -0.00156529
C        1.29815678       1.14272446      -0.14264938       0.00231656      -0.00125238      -0.00297914
C       -0.27849031       4.48305218       7.16320341      -0.00231656       0.00125238       0.00297914
C        2.08344855       3.95600073       3.03598996      -0.00130638      -0.00319125      -0.00040469
C       -1.06378203       1.66977594       3.98456397       0.00130638       0.00319125       0.00040469
N       -3.15084757       2.06605460       7.17749880      -0.00097033      -0.00230114       0.00116497
N        4.17051423       3.55972206      -0.15694501       0.00097033       0.00230114      -0.00116497
N        1.80831478       4.88584550       3.97092231      -0.00271200      -0.00301616       0.00500182
N       -0.78864829       0.73993115       3.04963165       0.00271200       0.00301616      -0.00500182
O        0.81890287       1.68918673       1.02930047       0.00015709       0.00043452      -0.00034658
O        0.20076337       3.93658970       5.99125343      -0.00015709      -0.00043452       0.00034658
O        2.56214879       4.50452220       1.86473608      -0.00077236       0.00019463       0.00055562
O       -1.54248257       1.12125463       5.15581793       0.00077236      -0.00019463      -0.00055562
H        0.58616526       5.06967479       1.65985465      -0.00025582       0.00217464       0.00013730
H        0.43350133       0.55610184       5.36069917       0.00025582      -0.00217464      -0.00013730
H        2.79435551       2.25585411       1.23504111      -0.00025685       0.00184862       0.00026688
H       -1.77468899       3.36992250       5.78551283       0.00025685      -0.00184862      -0.00026688
H        1.05042145       3.62695588       0.75055086       0.00012650       0.00310384      -0.00088600
H       -0.03075495       1.99882074       6.27000315      -0.00012650      -0.00310384       0.00088600
H        2.33137157       0.81144888       2.14236165      -0.00024914       0.00330772       0.00075925
H       -1.31170503       4.81432773       4.87819227       0.00024914      -0.00330772      -0.00075925
H       -2.73969741      -0.63556529       7.18777114       0.00009410      -0.00385948      -0.00024117
H        3.75936386       6.26134180      -0.16721740      -0.00009410       0.00385948       0.00024117
H        1.39969748       2.18383699       3.95704206       0.00037770      -0.00337380      -0.00071759
H       -0.38003121       3.44193980       3.06351218      -0.00037770       0.00337380       0.00071759
H       -3.75996108       2.87646847       7.14282429       0.00045251       0.00116085      -0.00091506
H        4.77962735       2.74930816      -0.12227023      -0.00045251      -0.00116085       0.00091506
H        2.41671359       5.69670025       4.00679968       0.00060755       0.00250143       0.00070988
H       -1.39704718      -0.07092365       3.01375428      -0.00060755      -0.00250143      -0.00070988
H       -2.70398663       1.77438099       6.30794766       0.00217772      -0.00071245      -0.00189079
H        3.72365325       3.85139562       0.71260601      -0.00217772       0.00071245       0.00189079
H        1.36171830       4.59248737       4.84015639      -0.00066437       0.00044120      -0.00122770
H       -0.34205198       1.03328925       2.18039774       0.00066437      -0.00044120       0.00122770
