40
Lattice="5.56332664301878 0.003545922993 -1.20337442462471 -0.00260827399485 5.4549475662327 0.00370680699268 -4.56566644698802 -0.0079544249843 8.06274633008528" Properties=species:S:1:pos:R:3:forces:R:3 pbc="T T T"
C        1.29495579       4.47551438       0.96713888       0.00003882       0.00017766      -0.00026559
C       -0.29990392       0.97502522       5.89594040      -0.00003882      -0.00017766       0.00026559
C        1.98232151       1.74770569       1.86547781       0.00008947      -0.00043117       0.00013395
C       -0.98726970       3.70283382       4.99760145      -0.00008947       0.00043117      -0.00013395
C        1.51542852      -0.19573076      -0.21604041      -0.00034556       0.00024605       0.00022214
C       -0.52037640       5.64627029       7.07911954       0.00034556      -0.00024605      -0.00022214
C        1.76391031       2.52961766       3.04602452       0.00064560       0.00174167      -0.00021674
C       -0.76885850       2.92092183       3.81705495      -0.00064560      -0.00174167       0.00021674
C        1.24672973       1.11500459      -0.17375393      -0.00010387      -0.00046588       0.00010362
C       -0.25167761       4.33553494       7.03683324       0.00010387       0.00046588      -0.00010362
C        2.03146082       3.84065323       3.00541269      -0.00018872      -0.00168613      -0.00000334
C       -1.03640866       1.60988631       3.85766651       0.00018872       0.00168613       0.00000334
N       -3.03353384       2.06212886       6.99658728      -0.00029491       0.00031522       0.00002057
N        4.02858614       3.38841069      -0.13350821       0.00029491      -0.00031522      -0.00002057
N        1.74541526       4.79430331       3.89914840       0.00008896       0.00008408       0.00001054
N       -0.75036312       0.65623621       2.96393083      -0.00008896      -0.00008408      -0.00001054
O        0.75553708       1.62919709       1.00414975       0.00006248       0.00000283      -0.00001800
O        0.23951480       3.82134222       5.85892943      -0.00006248      -0.00000283       0.00001800
O        2.52195864       4.35681339       1.82809084      -0.00008485       0.00009230      -0.00014090
O       -1.52690678       1.09372631       5.03498845       0.00008485      -0.00009230       0.00014090
H        0.55652297       4.90052251       1.63700355       0.00005091       0.00036561      -0.00013807
H        0.43852926       0.55001699       5.22607555      -0.00005091      -0.00036561       0.00013807
H        2.72049201       2.17419815       1.19626765      -0.00002314       0.00042835       0.00010104
H       -1.72543984       3.27634135       5.66681156       0.00002314      -0.00042835      -0.00010104
H        1.01878698       3.45977859       0.74644015       0.00006633      -0.00000540       0.00023963
H       -0.02373483       1.99076090       6.11663913      -0.00006633       0.00000540      -0.00023963
H        2.25924459       0.73188920       2.08485930      -0.00010464       0.00026251      -0.00035533
H       -1.26419241       4.71865028       4.77821990       0.00010464      -0.00026251       0.00035533
H       -2.61553727      -0.66539606       6.98233054       0.00050342       0.00006531      -0.00004499
H        3.61058936       6.11593546      -0.11925152      -0.00050342      -0.00006531       0.00004499
H        1.32990753       2.06635839       3.90991131      -0.00062581      -0.00010027       0.00019618
H       -0.33485562       3.38418126       2.95316820       0.00062581       0.00010027      -0.00019618
H       -3.66678812       2.85310918       6.96319220       0.00057773       0.00021289       0.00007328
H        4.66184004       2.59743031      -0.10011287      -0.00057773      -0.00021289      -0.00007328
H        2.37824777       5.58557901       3.93367977      -0.00045329       0.00049237      -0.00006222
H       -1.38319572      -0.13503953       2.92939948       0.00045329      -0.00049237       0.00006222
H       -2.58363531       1.78381470       6.12589823       0.00004654      -0.00030185       0.00014064
H        3.57868758       3.66672478       0.73718074      -0.00004654       0.00030185      -0.00014064
H        1.29594345       4.51426533       4.76950983      -0.00006685      -0.00030313      -0.00020312
H       -0.30089147       0.93627417       2.09356957       0.00006685       0.00030313       0.00020312
