40
Lattice="5.41870283930425 0.00354290499301 -1.18865819565376 -0.0024831189951 5.32016173049875 0.00354012699301 -4.46227932319209 -0.00794369498432 7.89322902541988" Properties=species:S:1:pos:R:3:forces:R:3 pbc="T T T"
C        1.26233777       4.34386423       0.93888286       0.00026482       0.00043837      -0.00002623
C       -0.30839742       0.97189720       5.76922863      -0.00026482      -0.00043837       0.00002623
C        1.92201694       1.68342712       1.82368873       0.00001337      -0.00027845      -0.00005348
C       -0.96807665       3.63233424       4.88442272      -0.00001337       0.00027845       0.00005348
C        1.48313638      -0.21305362      -0.24602897       0.00060807      -0.00199415      -0.00011339
C       -0.52919579       5.52881498       6.95414029      -0.00060807       0.00199415       0.00011339
C        1.70331995       2.44490537       3.00611147       0.00006273       0.00098422       0.00001234
C       -0.74937966       2.87085598       3.70200019      -0.00006273      -0.00098422      -0.00001234
C        1.20754608       1.08892726      -0.20544305      -0.00011184       0.00267549      -0.00073842
C       -0.25360551       4.22683413       6.91355455       0.00011184      -0.00267549       0.00073842
C        1.97785380       3.74718769       2.96709117      -0.00018203      -0.00045920      -0.00000154
C       -1.02391316       1.56857369       3.74102023       0.00018203       0.00045920       0.00000154
N       -2.95462725       2.05515259       6.83524698      -0.00011930      -0.00084589       0.00103847
N        3.90856802       3.26060881      -0.12713570       0.00011930       0.00084589      -0.00103847
N        1.67726798       4.72001839       3.82096706      -0.00116265      -0.00098705       0.00072428
N       -0.72332738       0.59574298       2.88714437       0.00116265       0.00098705      -0.00072428
O        0.70386060       1.57658089       0.97342985      -0.00018435      -0.00016172      -0.00003034
O        0.25007976       3.73918028       5.73468153       0.00018435       0.00016172       0.00003034
O        2.48074933       4.23672565       1.78867454       0.00001877      -0.00007173      -0.00019926
O       -1.52680900       1.07903591       4.91943695      -0.00001877       0.00007173       0.00019926
H        0.52914461       4.76901736       1.60673291       0.00004834      -0.00033270       0.00003831
H        0.42479608       0.54674399       5.10137838      -0.00004834       0.00033270      -0.00003831
H        2.65503178       2.10998966       1.15653304      -0.00004062      -0.00026945      -0.00005091
H       -1.70109115       3.20577169       5.55157838       0.00004062       0.00026945       0.00005091
H        0.98859421       3.33171082       0.73012803      -0.00016352      -0.00005502      -0.00031290
H       -0.03465359       1.98405052       5.97798346       0.00016352       0.00005502       0.00031290
H        2.19639191       0.67118557       2.03117791       0.00010336       0.00027614       0.00012727
H       -1.24245126       4.64457575       4.67693351      -0.00010336      -0.00027614      -0.00012727
H       -2.52946039      -0.68713455       6.79998521      -0.00042835      -0.00007148       0.00017689
H        3.48340096       6.00289579      -0.09187398       0.00042835       0.00007148      -0.00017689
H        1.25451520       1.97725771       3.85293586       0.00019283      -0.00037770       0.00016275
H       -0.30057483       3.33850377       2.85517584      -0.00019283       0.00037770      -0.00016275
H       -3.60492811       2.83027591       6.80566313      -0.00043349      -0.00035944      -0.00010079
H        4.55886850       2.48548542      -0.09755162       0.00043349       0.00035944       0.00010079
H        2.32728552       5.49533804       3.85165453       0.00090117       0.00036561       0.00007071
H       -1.37334501      -0.17957673       2.85645691      -0.00090117      -0.00036561      -0.00007071
H       -2.50931514       1.78872000       5.96123960       0.00014372       0.00019823      -0.00046408
H        3.46325588       3.52704133       0.74687156      -0.00014372      -0.00019823       0.00046408
H        1.23253220       4.45177044       4.69474583       0.00018383       0.00044120      -0.00038129
H       -0.27859174       0.86399090       2.01336578      -0.00018383      -0.00044120       0.00038129
