40
Lattice="5.3264181414864 0.0034468989932 -1.1841270676627 -0.00247235599512 5.23629981766428 0.00356316799297 -4.40393078130726 -0.00769258098482 7.78274433163796" Properties=species:S:1:pos:R:3:forces:R:3 pbc="T T T"
C        1.24036828       4.26080195       0.91833138      -0.00039312      -0.00016584       0.00038644
C       -0.32035333       0.97125273       5.68384964       0.00039312       0.00016584      -0.00038644
C        1.88100864       1.64230346       1.79335671      -0.00013730      -0.00029053       0.00007765
C       -0.96099372       3.58975114       4.80882427       0.00013730       0.00029053      -0.00007765
C        1.46305642      -0.22493242      -0.26588626      -0.00010413       0.00198823      -0.00052939
C       -0.54304123       5.45698703       6.86806711       0.00010413      -0.00198823       0.00052939
C        1.66032588       2.39112041       2.97506623      -0.00066077      -0.00192601       0.00030082
C       -0.74031099       2.84093419       3.62711496       0.00066077       0.00192601      -0.00030082
C        1.18280488       1.07070047      -0.22701202       0.00023166      -0.00264129       0.00077827
C       -0.26278969       4.16135417       6.82919305      -0.00023166       0.00264129      -0.00077827
C        1.93946577       3.68696324       2.93781187      -0.00002880       0.00355969       0.00133132
C       -1.01945053       1.54509138       3.66436906       0.00002880      -0.00355969      -0.00133132
N       -2.90963926       2.04815987       6.73078134      -0.00002982       0.00125341      -0.00108578
N        3.82965462       3.18389478      -0.12860051       0.00002982      -0.00125341       0.00108578
N        1.62735437       4.67085086       3.76417333      -0.00003522      -0.00233996      -0.00163754
N       -0.70733917       0.56120375       2.83800763       0.00003522       0.00233996       0.00163754
O        0.67067595       1.54164231       0.95056801       0.00004628       0.00005605       0.00005014
O        0.24933904       3.69041210       5.65161291      -0.00004628      -0.00005605      -0.00005014
O        2.45090851       4.15991003       1.76074684       0.00021623      -0.00011699       0.00002083
O       -1.53089357       1.07214478       4.84143419      -0.00021623       0.00011699      -0.00002083
H        0.50993779       4.68521207       1.58398877       0.00009359      -0.00042526      -0.00012084
H        0.41007751       0.54684252       5.01819207      -0.00009359       0.00042526       0.00012084
H        2.61119874       2.06817964       1.12838838       0.00021237      -0.00023191      -0.00015529
H       -1.69118350       3.16387496       5.47379257      -0.00021237       0.00023191       0.00015529
H        0.96783009       3.25190310       0.71518403      -0.00010824       0.00032730      -0.00010747
H       -0.04781486       1.98015148       5.88699699       0.00010824      -0.00032730       0.00010747
H        2.15426797       0.63334078       1.99519177       0.00006813       0.00048182       0.00019566
H       -1.23425269       4.59871378       4.60698917      -0.00006813      -0.00048182      -0.00019566
H       -2.48073700      -0.69949280       6.68111905      -0.00017458      -0.00025351      -0.00009796
H        3.40075218       5.93154729      -0.07893827       0.00017458       0.00025351       0.00009796
H        1.20094424       1.92267591       3.81034117       0.00025068      -0.00017586      -0.00004011
H       -0.28092925       3.30937880       2.79184006      -0.00025068       0.00017586       0.00004011
H       -3.56862870       2.81408209       6.70448583      -0.00003188      -0.00049468      -0.00005734
H        4.48864372       2.41797248      -0.10230478       0.00003188       0.00049468       0.00005734
H        2.28594111       5.43706354       3.79153320       0.00084975       0.00020775       0.00011313
H       -1.36592599      -0.20500898       2.81064776      -0.00084975      -0.00020775      -0.00011313
H       -2.46917765       1.78908687       5.85456068       0.00006094       0.00010130       0.00010182
H        3.38919300       3.44296770       0.74762002      -0.00006094      -0.00010130      -0.00010182
H        1.18739516       4.40999536       4.64010159      -0.00013241       0.00016327       0.00030236
H       -0.26738009       0.82205923       1.96207957       0.00013241      -0.00016327      -0.00030236
