40
Lattice="5.62607958089491 0.00355082299299 -1.21382185960409 -0.00266096099475 5.51496247711424 0.00378632499253 -4.61720588688629 -0.0079525899843 8.13293808094673" Properties=species:S:1:pos:R:3:forces:R:3 pbc="T T T"
C        1.30827174       4.53381735       0.97701887       0.00012753       0.00015787       0.00011030
C       -0.30205905       0.97674392       5.94588428      -0.00012753      -0.00015787      -0.00011030
C        2.00602708       1.77601216       1.88018676      -0.00011441       0.00013833      -0.00013755
C       -0.99981445       3.73454903       5.04271637       0.00011441      -0.00013833       0.00013755
C        1.53000252      -0.18851337      -0.20429424       0.00005965      -0.00043117      -0.00008690
C       -0.52378957       5.69907456       7.12719724      -0.00005965       0.00043117       0.00008690
C        1.78630817       2.56684771       3.05880207      -0.00011467      -0.00059110       0.00012393
C       -0.78009554       2.94371345       3.86410127       0.00011467       0.00059110      -0.00012393
C        1.26399069       1.12544276      -0.16197776      -0.00007276      -0.00007970       0.00020183
C       -0.25777776       4.38511844       7.08488094       0.00007276       0.00007970      -0.00020183
C        2.05111012       3.88109523       3.01822980       0.00010079       0.00016069      -0.00017226
C       -1.04489714       1.62946598       3.90467327      -0.00010079      -0.00016069       0.00017226
N       -3.07257616       2.06386638       7.06280664       0.00011056       0.00036484      -0.00010619
N        4.07878928       3.44669484      -0.13990370      -0.00011056      -0.00036484       0.00010619
N        1.76971434       4.82599110       3.92770042      -0.00018846       0.00019926       0.00006171
N       -0.76350138       0.68457010       2.99520268       0.00018846      -0.00019926      -0.00006171
O        0.77730484       1.65123033       1.01422737       0.00021032       0.00003214       0.00007251
O        0.22890786       3.85933065       5.90867567      -0.00021032      -0.00003214      -0.00007251
O        2.53717785       4.40891344       1.84267954      -0.00020852      -0.00000283      -0.00007173
O       -1.53096517       1.10164794       5.08022362       0.00020852       0.00000283       0.00007173
H        0.56726761       4.95902180       1.64672583       0.00001183       0.00001466      -0.00004757
H        0.43894544       0.55153937       5.27617713      -0.00001183      -0.00001466       0.00004757
H        2.74670777       2.20276956       1.21110929      -0.00000617       0.00002031       0.00003008
H       -1.74049479       3.30779161       5.71179379       0.00000617      -0.00002031      -0.00003008
H        1.03054200       3.51721777       0.74995386       0.00004345      -0.00015272      -0.00010542
H       -0.02432903       1.99334339       6.17294929      -0.00004345       0.00015272       0.00010542
H        2.28460475       0.75934855       2.10589989      -0.00003085      -0.00014192       0.00008896
H       -1.27839175       4.75121261       4.81700318       0.00003085       0.00014192      -0.00008896
H       -2.65670614      -0.65490537       7.05798076      -0.00013164      -0.00005888      -0.00011287
H        3.66291906       6.16546643      -0.13507787       0.00013164       0.00005888       0.00011287
H        1.35639172       2.10681997       3.92891538       0.00014270      -0.00004474       0.00006016
H       -0.35017899       3.40374136       2.99398800      -0.00014270       0.00004474      -0.00006016
H       -3.69737324       2.86196326       7.02848806       0.00010490      -0.00018203      -0.00004422
H        4.70358598       2.64859790      -0.10558486      -0.00010490       0.00018203       0.00004422
H        2.39395958       5.62447613       3.96316593      -0.00007713      -0.00012290       0.00003111
H       -1.38774671      -0.11391497       2.95973718       0.00007713       0.00012290      -0.00003111
H       -2.62275053       1.78028510       6.19299823       0.00009256      -0.00008973       0.00000823
H        3.62896362       3.73027606       0.72990460      -0.00009256       0.00008973      -0.00000823
H        1.32024399       4.54072154       4.79714297      -0.00009436      -0.00007636      -0.00004062
H       -0.31403119       0.96983963       2.12576030       0.00009436       0.00007636       0.00004062
