40
Lattice="5.29413026255014 0.00343491799322 -1.18287899766516 -0.00245297099516 5.207059190722 0.003547149993 -4.3841515433463 -0.00765365498489 7.74343013771556" Properties=species:S:1:pos:R:3:forces:R:3 pbc="T T T"
C        1.23240138       4.23174242       0.91095745      -0.00043940      -0.00031110       0.00005502
C       -0.32487568       0.97109860       5.65314146       0.00043940       0.00031110      -0.00005502
C        1.86660860       1.62785609       1.78228215      -0.00004371       0.00009590       0.00054764
C       -0.95908293       3.57498484       4.78181671       0.00004371      -0.00009590      -0.00054764
C        1.45606048      -0.22926835      -0.27277143      -0.00011904       0.00070962      -0.00015221
C       -0.54853454       5.43210929       6.83687016       0.00011904      -0.00070962       0.00015221
C        1.64492989       2.37214054       2.96352005      -0.00001594      -0.00116728      -0.00052528
C       -0.73740425       2.83070040       3.60057901       0.00001594       0.00116728       0.00052528
C        1.17424644       1.06399911      -0.23451521       0.00022986      -0.00114903       0.00038155
C       -0.26672051       4.13884186       6.79861412      -0.00022986       0.00114903      -0.00038155
C        1.92564326       3.66565418       2.92688772      -0.00012573       0.00148096       0.00045046
C       -1.01811728       1.53718677       3.63721109       0.00012573      -0.00148096      -0.00045046
N       -2.89392019       2.04510760       6.69406615      -0.00056076       0.00035687      -0.00044917
N        3.80144629       3.15773339      -0.12996745       0.00056076      -0.00035687       0.00044917
N        1.60902606       4.65312130       3.74312936       0.00044660      -0.00113000      -0.00051114
N       -0.70150011       0.54971965       2.82096947      -0.00044660       0.00113000       0.00051114
O        0.65924456       1.52922804       0.94225198       0.00026688      -0.00000566       0.00004937
O        0.24828117       3.67361271       5.62184683      -0.00026688       0.00000566      -0.00004937
O        2.43997223       4.13287572       1.75062241      -0.00009153      -0.00007816      -0.00003188
O       -1.53244655       1.06996542       4.81347651       0.00009153       0.00007816       0.00003188
H        0.50305607       4.65574482       1.57589879      -0.00035327      -0.00032113       0.00012470
H        0.40446998       0.54709611       4.98819994       0.00035327       0.00032113      -0.00012470
H        2.59571634       2.05333890       1.11803500       0.00054764      -0.00020595      -0.00030802
H       -1.68819036       3.14950204       5.44606383      -0.00054764       0.00020595       0.00030802
H        0.95993825       3.22416951       0.70978078       0.00007868      -0.00009642      -0.00015735
H       -0.05241228       1.97867141       5.85431813      -0.00007868       0.00009642       0.00015735
H        2.13979166       0.62023041       1.98214661      -0.00004525      -0.00023911       0.00023911
H       -1.23226563       4.58261048       4.58195221       0.00004525       0.00023911      -0.00023911
H       -2.46445370      -0.70387661       6.63891182      -0.00022523      -0.00009873      -0.00036561
H        3.37197962       5.90671744      -0.07481315       0.00022523       0.00009873       0.00036561
H        1.18204471       1.90361595       3.79479280       0.00015170      -0.00017406       0.00050856
H       -0.27451897       3.29922511       2.76930630      -0.00015170       0.00017406      -0.00050856
H       -3.55494327       2.80847612       6.66926647      -0.00021469      -0.00011184      -0.00003754
H        4.46246903       2.39436478      -0.10516754       0.00021469       0.00011184       0.00003754
H        2.26964982       5.41680427       3.76900344       0.00058493       0.00018666       0.00004782
H       -1.36212396      -0.21396337       2.79509541      -0.00058493      -0.00018666      -0.00004782
H       -2.45514207       1.78862657       5.81724950       0.00004808      -0.00009642       0.00009050
H        3.36266816       3.41421433       0.74684909      -0.00004808       0.00009642      -0.00009050
H        1.17074010       4.39487247       4.61967008      -0.00002957      -0.00004602      -0.00002777
H       -0.26321428       0.80796847       1.94442896       0.00002957       0.00004602       0.00002777
