40
Lattice="5.39864204534384 0.00351943299305 -1.18733259265637 -0.0024807689951 5.30191511153477 0.00355586599298 -4.44908443521814 -0.00787301498446 7.86928662346714" Properties=species:S:1:pos:R:3:forces:R:3 pbc="T T T"
C        1.25773668       4.32578019       0.93452636      -0.00021597       0.00015684      -0.00009307
C       -0.31065989       0.97178184       5.75098408       0.00021597      -0.00015684       0.00009307
C        1.91320157       1.67446654       1.81734564       0.00021160       0.00007585       0.00015375
C       -0.96612483       3.62309542       4.86816476      -0.00021160      -0.00007585      -0.00015375
C        1.47878324      -0.21558748      -0.25033228       0.00005194      -0.00020209      -0.00007379
C       -0.53170621       5.51314944       6.93584255      -0.00005194       0.00020209       0.00007379
C        1.69422218       2.43326238       2.99970200       0.00000540      -0.00008639      -0.00003934
C       -0.74714545       2.86429957       3.68580861      -0.00000540       0.00008639       0.00003934
C        1.20214803       1.08506670      -0.21008435       0.00012856       0.00023911      -0.00013987
C       -0.25507101       4.21249529       6.89559480      -0.00012856      -0.00023911       0.00013987
C        1.96977861       3.73418264       2.96104507      -0.00011467       0.00003908       0.00001106
C       -1.02270153       1.56337934       3.72446528       0.00011467      -0.00003908      -0.00001106
N       -2.94460514       2.05390171       6.81254079      -0.00013704      -0.00021160       0.00017175
N        3.89168235       3.24366029      -0.12703055       0.00013704       0.00021160      -0.00017175
N        1.66690984       4.70955794       3.80906526       0.00014270      -0.00002031      -0.00006016
N       -0.71983280       0.58800403       2.87644512      -0.00014270       0.00002031       0.00006016
O        0.69665401       1.56899733       0.96869038      -0.00002648       0.00016224      -0.00024554
O        0.25042280       3.72856444       5.71681996       0.00002648      -0.00016224       0.00024554
O        2.47452117       4.22004210       1.78274733       0.00001491       0.00014450       0.00026457
O       -1.52744439       1.07752006       4.90276311      -0.00001491      -0.00014450      -0.00026457
H        0.52508194       4.75069471       1.60192920       0.00002803       0.00016635       0.00017895
H        0.42199520       0.54686724       5.08358105      -0.00002803      -0.00016635      -0.00017895
H        2.64565493       2.10081760       1.15063187       0.00000051       0.00019489      -0.00022317
H       -1.69857785       3.19674435       5.53487850      -0.00000051      -0.00019489       0.00022317
H        0.98434991       3.31429105       0.72692483       0.00019618      -0.00004834      -0.00008896
H       -0.03727285       1.98327089       5.95858561      -0.00019618       0.00004834       0.00008896
H        2.18725149       0.66290351       2.02366446      -0.00018435       0.00001183       0.00004731
H       -1.24017439       4.63465841       4.66184591       0.00018435      -0.00001183      -0.00004731
H       -2.51849327      -0.68994474       6.77420468      -0.00003548      -0.00000103      -0.00012650
H        3.46557029       5.98750658      -0.08869449       0.00003548       0.00000103       0.00012650
H        1.24324378       1.96523564       3.84403478      -0.00000077      -0.00003831       0.00014398
H       -0.29616697       3.33232644       2.84147587       0.00000077       0.00003831      -0.00014398
H       -3.59730520       2.82666656       6.78353934      -0.00018872      -0.00005091      -0.00016892
H        4.54438203       2.47089537      -0.09802888       0.00018872       0.00005091       0.00016892
H        2.31929361       5.48257581       3.83915502       0.00009924      -0.00011004       0.00014552
H       -1.37221666      -0.18501390       2.84635537      -0.00009924       0.00011004      -0.00014552
H       -2.50032057       1.78914371       5.93796688      -0.00008536       0.00009616       0.00017818
H        3.44739775       3.50841822       0.74754324       0.00008536      -0.00009616      -0.00017818
H        1.22318254       4.44301123       4.68338122       0.00005888       0.00008690      -0.00021520
H       -0.27610564       0.85455071       2.00212934      -0.00005888      -0.00008690       0.00021520
