40
Lattice="5.37953540538156 0.00351082399307 -1.18645225965811 -0.00246849699513 5.28444613256925 0.00355576599298 -4.43706160324187 -0.00783664998453 7.84653336751205" Properties=species:S:1:pos:R:3:forces:R:3 pbc="T T T"
C        1.25319356       4.30859512       0.93028296      -0.00026097      -0.00061578       0.00050342
C       -0.31318831       0.97152570       5.73335447       0.00026097       0.00061578      -0.00050342
C        1.90469446       1.66600852       1.81104206      -0.00018820       0.00039544       0.00030056
C       -0.96468925       3.61411222       4.85259533       0.00018820      -0.00039544      -0.00030056
C        1.47460600      -0.21797939      -0.25447699       0.00075848      -0.00099116      -0.00108063
C       -0.53460051       5.49810014       6.91811424      -0.00075848       0.00099116       0.00108063
C        1.68530793       2.42212117       2.99331736       0.00020723       0.00071297      -0.00039081
C       -0.74530274       2.85799957       3.67032024      -0.00020723      -0.00071297       0.00039081
C        1.19699684       1.08134812      -0.21460356      -0.00000694       0.00232016      -0.00074845
C       -0.25699135       4.19877266       6.87824099       0.00000694      -0.00232016       0.00074845
C        1.96184103       3.72174930       2.95504369      -0.00020697      -0.00124699      -0.00032550
C       -1.02183549       1.55837146       3.70859365       0.00020697       0.00124699       0.00032550
N       -2.93537807       2.05252081       6.79088924       0.00048645      -0.00178872       0.00073765
N        3.87538374       3.22759998      -0.12725201      -0.00048645       0.00178872      -0.00073765
N        1.65658099       4.69937965       3.79743256       0.00027819       0.00107781       0.00039415
N       -0.71657549       0.58074110       2.86620481      -0.00027819      -0.00107781      -0.00039415
O        0.68970823       1.56185622       0.96390458      -0.00008536      -0.00009050       0.00002725
O        0.25029704       3.71826434       5.69973275       0.00008536       0.00009050      -0.00002725
O        2.46840122       4.20417984       1.77701586       0.00016789       0.00005914      -0.00009282
O       -1.52839598       1.07594111       4.88662157      -0.00016789      -0.00005914       0.00009282
H        0.52115387       4.73348950       1.59721715       0.00006145      -0.00028899      -0.00000206
H        0.41885174       0.54663124       5.06642009      -0.00006145       0.00028899       0.00000206
H        2.63651613       2.09236652       1.14480155       0.00002623      -0.00024040      -0.00011339
H       -1.69651059       3.18775422       5.51883581      -0.00002623       0.00024040       0.00011339
H        0.98006854       3.29772679       0.72396591      -0.00002854       0.00054430      -0.00017586
H       -0.04006302       1.98239393       5.93967152       0.00002854      -0.00054430       0.00017586
H        2.17849557       0.65508747       2.01607267       0.00019926       0.00004217       0.00019772
H       -1.23849000       4.62503324       4.64756468      -0.00019926      -0.00004217      -0.00019772
H       -2.50830510      -0.69242884       6.74971674      -0.00043760      -0.00003497       0.00034556
H        3.44831058       5.97254947      -0.08607956       0.00043760       0.00003497      -0.00034556
H        1.23196819       1.95396897       3.83520712       0.00009667      -0.00037307       0.00024811
H       -0.29196291       3.32615189       2.82843051      -0.00009667       0.00037307      -0.00024811
H       -3.58983298       2.82340868       6.76256248      -0.00082815       0.00017535      -0.00011056
H        4.52983828       2.45671203      -0.09892503       0.00082815      -0.00017535       0.00011056
H        2.31070378       5.47057559       3.82685111      -0.00008973      -0.00074485       0.00003368
H       -1.37069837      -0.19045489       2.83678627       0.00008973       0.00074485      -0.00003368
H       -2.49210135       1.78921282       5.91586627       0.00001363       0.00030108      -0.00010413
H        3.43210700       3.49090790       0.74777084      -0.00001363      -0.00030108       0.00010413
H        1.21384875       4.43431162       4.67219876      -0.00017432       0.00008947       0.00015272
H       -0.27384339       0.84580911       1.99143879       0.00017432      -0.00008947      -0.00015272
