40
Lattice="5.27878094158043 0.00342439899324 -1.18233552466624 -0.00244604799517 5.19323169574929 0.00355077799299 -4.37485745636465 -0.00761654898497 7.72458302875276" Properties=species:S:1:pos:R:3:forces:R:3 pbc="T T T"
C        1.22852526       4.21806562       0.90745009      -0.00088163      -0.00065795       0.00071374
C       -0.32704787       0.97097451       5.63834882       0.00088163       0.00065795      -0.00071374
C        1.85979402       1.62109395       1.77690843      -0.00017921      -0.00030365       0.00026739
C       -0.95831666       3.56794608       4.76889043       0.00017921       0.00030365      -0.00026739
C        1.45275788      -0.23133620      -0.27601885       0.00024888      -0.00051011      -0.00110506
C       -0.55128024       5.42037624       6.82181758      -0.00024888       0.00051011       0.00110506
C        1.63752544       2.36314440       2.95789557       0.00077467       0.00025351      -0.00086029
C       -0.73604811       2.82589564       3.58790350      -0.00077467      -0.00025351       0.00086029
C        1.17022723       1.06078301      -0.23808300      -0.00072145      -0.00007173       0.00085515
C       -0.26874961       4.12825706       6.78388192       0.00072145       0.00007173      -0.00085515
C        1.91897552       3.65554586       2.92156660      -0.00032113       0.00010387       0.00133337
C       -1.01749785       1.53349419       3.62423222       0.00032113      -0.00010387      -0.00133337
N       -2.88651534       2.04356624       6.67651095       0.00094257       0.00032062      -0.00120173
N        3.78799313       3.14547385      -0.13071225      -0.00094257      -0.00032062       0.00120173
N        1.60020248       4.64463488       3.73298705       0.00102716      -0.00000411      -0.00215716
N       -0.69872484       0.54440517       2.81281178      -0.00102716       0.00000411       0.00215716
O        0.65387422       1.52337056       0.93821142       0.00037590      -0.00025685       0.00038695
O        0.24760320       3.66566929       5.60758740      -0.00037590       0.00025685      -0.00038695
O        2.43464569       4.12010108       1.74578705       0.00019155       0.00006402      -0.00086595
O       -1.53316832       1.06893916       4.80001187      -0.00019155      -0.00006402       0.00086595
H        0.49973381       4.64183821       1.57212243      -0.00003291      -0.00045071      -0.00043683
H        0.40174393       0.54720182       4.97367630       0.00003291       0.00045071       0.00043683
H        2.58834554       2.04634239       1.11293892       0.00042963      -0.00016455       0.00009282
H       -1.68686787       3.14269765       5.43285992      -0.00042963       0.00016455      -0.00009282
H        0.95598376       3.21117452       0.70721330       0.00032499      -0.00091043      -0.00004731
H       -0.05450610       1.97786550       5.83858561      -0.00032499       0.00091043       0.00004731
H        2.13304805       0.61415289       1.97583171      -0.00022857      -0.00115005       0.00013807
H       -1.23157033       4.57488710       4.56996711       0.00022857       0.00115005      -0.00013807
H       -2.45688107      -0.70596768       6.61866329      -0.00082661       0.00035301       0.00065383
H        3.35835868       5.89500761      -0.07286462       0.00082661      -0.00035301      -0.00065383
H        1.17307253       1.89458592       3.78730630       0.00024888      -0.00026405       0.00034247
H       -0.27159510       3.29445424       2.75849280      -0.00024888       0.00026405      -0.00034247
H       -3.54822672       2.80592480       6.65255526      -0.00041858       0.00011801      -0.00002391
H        4.44970417       2.38311520      -0.10675633       0.00041858      -0.00011801       0.00002391
H        2.26154416       5.40731881       3.75800114       0.00000437      -0.00029902       0.00012598
H       -1.36006661      -0.21827881       2.78779772      -0.00000437       0.00029902      -0.00012598
H       -2.44840291       1.78834935       5.79948120      -0.00038669       0.00000051       0.00061424
H        3.34988069       3.40069065       0.74631740       0.00038669      -0.00000051      -0.00061424
H        1.16260570       4.38766520       4.60970988      -0.00032165      -0.00054353       0.00086338
H       -0.26112819       0.80137484       1.93608917       0.00032165       0.00054353      -0.00086338
